/*--------------------------------*- C++ -*----------------------------------*\
| =========                 |                                                 |
| \\      /  F ield         | OpenFOAM: The Open Source CFD Toolbox           |
|  \\    /   O peration     | Version:  2512                                  |
|   \\  /    A nd           | Website:  www.openfoam.com                      |
|    \\/     M anipulation  |                                                 |
\*---------------------------------------------------------------------------*/
FoamFile
{
    version     2.0;
    format      ascii;
    arch        "LSB;label=32;scalar=64";
    class       volScalarField;
    location    "1";
    object      topOSensas1;
}
// * * * * * * * * * * * * * * * * * * * * * * * * * * * * * * * * * * * * * //

dimensions      [0 0 0 0 0 0 0];

internalField   nonuniform List<scalar> 
1440
(
0
-1.77396374835e-13
-3.06870716988e-13
-4.26385256273e-13
-5.78545213146e-13
-8.25761955835e-13
-1.26026607689e-12
-2.02825108084e-12
-3.36559266739e-12
-5.65004624063e-12
-9.47207183616e-12
-1.5719025414e-11
-2.56475632129e-11
-4.0874185495e-11
-6.31116930792e-11
-9.3437977164e-11
-1.30879609614e-10
-1.70491294364e-10
-2.02229187538e-10
-2.12948179191e-10
-1.91055646032e-10
-1.30836551377e-10
-3.42083451624e-11
9.01975630911e-11
2.29613407916e-10
3.70036325672e-10
4.98398863027e-10
6.03608445365e-10
6.76688329178e-10
7.10644202941e-10
7.00820223564e-10
6.46334440562e-10
5.52494859235e-10
4.32755396376e-10
3.0745701579e-10
1.97444274244e-10
1.15383036252e-10
6.21695953083e-11
3.12308766424e-11
1.47280407229e-11
6.54846971877e-12
2.76921642274e-12
1.15199816937e-12
5.21889558184e-13
3.03106963891e-13
2.32217458737e-13
1.99323694599e-13
1.66673224083e-13
1.28865927171e-13
9.15001426017e-14
5.13724446196e-14
0
0
0
0
0
0
0
0
0
0
-1.74758065987e-13
-2.98299816545e-13
-4.16658471039e-13
-5.7087298025e-13
-8.22937285493e-13
-1.26651124752e-12
-2.05195458766e-12
-3.42396120512e-12
-5.7778943279e-12
-9.73847807278e-12
-1.62581642122e-11
-2.6714131132e-11
-4.29420776445e-11
-6.6998155533e-11
-1.00415344951e-10
-1.42609921138e-10
-1.88457476357e-10
-2.26478267268e-10
-2.41134212992e-10
-2.18662542037e-10
-1.52368813491e-10
-4.45755050634e-11
9.46350125938e-11
2.50574008431e-10
4.07384009918e-10
5.50513411e-10
6.67795646605e-10
7.49447614997e-10
7.87732955862e-10
7.77202874014e-10
7.16294625355e-10
6.1033313458e-10
4.74350860493e-10
3.32183144224e-10
2.08779329159e-10
1.18869267396e-10
6.23506545649e-11
3.04931515618e-11
1.39837402716e-11
6.02565669776e-12
2.456816029e-12
9.85637607775e-13
4.43758059585e-13
2.73501997532e-13
2.26688191818e-13
2.0358415864e-13
1.72760723841e-13
1.33202666542e-13
9.51108169275e-14
5.45853577723e-14
0
0
0
0
0
0
0
0
0
0
-1.53021448975e-13
-2.70711371003e-13
-3.90771357683e-13
-5.51935236042e-13
-8.15835898507e-13
-1.27945360056e-12
-2.10153655274e-12
-3.54434520218e-12
-6.03836466951e-12
-1.02770475452e-11
-1.73442688947e-11
-2.88614744655e-11
-4.71148897984e-11
-7.48829127323e-11
-1.14699617355e-10
-1.66933172989e-10
-2.26277079592e-10
-2.7820359964e-10
-3.01860334227e-10
-2.78661435841e-10
-1.99778237976e-10
-6.84490388259e-11
1.02064376439e-10
2.92914334567e-10
4.84281635741e-10
6.58497092013e-10
8.01184117847e-10
9.00928820975e-10
9.48481048182e-10
9.36709925782e-10
8.62495948291e-10
7.30985952324e-10
5.60420874526e-10
3.82245273082e-10
2.30601666866e-10
1.24731576147e-10
6.19474929959e-11
2.85917771632e-11
1.22698125597e-11
4.85308919486e-12
1.75004871775e-12
5.92033985244e-13
2.38025425026e-13
1.72712752699e-13
1.80936255244e-13
1.84254638407e-13
1.64011219405e-13
1.27155662334e-13
9.15361765799e-14
5.31034138905e-14
0
0
0
0
0
0
0
0
0
0
-1.28724064901e-13
-2.40786113333e-13
-3.64622437627e-13
-5.36687998536e-13
-8.18777823769e-13
-1.31288081501e-12
-2.19003356545e-12
-3.73836562929e-12
-6.44050144299e-12
-1.10929461907e-11
-1.89791959416e-11
-3.20974710274e-11
-5.34291544499e-11
-8.69225527715e-11
-1.36842917527e-10
-2.05453903925e-10
-2.87737831173e-10
-3.64202005579e-10
-4.04528445912e-10
-3.81512719462e-10
-2.82628323798e-10
-1.12779154873e-10
1.09239852402e-10
3.57478157354e-10
6.0549418428e-10
8.30545737963e-10
1.014778376e-09
1.14428519313e-09
1.20746597677e-09
1.19439853138e-09
1.09909253261e-09
9.25829647678e-10
6.97730659196e-10
4.5932227572e-10
2.61336359362e-10
1.30875849084e-10
5.96296680116e-11
2.48691382957e-11
9.2971427057e-12
2.9087841263e-12
5.95222345231e-13
-5.62514578573e-14
-1.12719346808e-13
-1.23308230023e-14
8.45623034176e-14
1.33418686809e-13
1.35397390948e-13
1.09285760615e-13
8.05387757573e-14
4.7304742153e-14
0
0
0
0
0
0
0
0
0
0
-1.08379535297e-13
-2.15908348024e-13
-3.44943504829e-13
-5.30645028729e-13
-8.35930142493e-13
-1.36939352297e-12
-2.31784694021e-12
-4.00278908718e-12
-6.9747510776e-12
-1.21661197597e-11
-2.11279611167e-11
-3.63739136832e-11
-6.18451111834e-11
-1.03197306977e-10
-1.67427451761e-10
-2.6028938196e-10
-3.78591206422e-10
-4.95826451321e-10
-5.65789697666e-10
-5.46549359742e-10
-4.19425820513e-10
-1.92119490151e-10
1.07561049561e-10
4.42352832463e-10
7.75562760187e-10
1.07687635403e-09
1.32348759252e-09
1.49809931282e-09
1.58585942734e-09
1.57262419388e-09
1.44747383822e-09
1.21217034035e-09
8.96252542549e-10
5.65056093785e-10
2.97558833281e-10
1.33660723316e-10
5.33761732203e-11
1.84301616739e-11
4.71825670322e-12
7.33913123179e-14
-1.04121131936e-12
-9.63481836009e-13
-6.04015062078e-13
-2.75275088891e-13
-5.62099032729e-14
5.66493447819e-14
9.16725417534e-14
8.31833799603e-14
6.5094794519e-14
3.95113425939e-14
0
0
0
0
0
0
0
0
0
0
-9.36073861333e-14
-1.97597470983e-13
-3.32176195718e-13
-5.32671817728e-13
-8.6428082711e-13
-1.44364677072e-12
-2.47627622065e-12
-4.32332914706e-12
-7.61684208066e-12
-1.34544422522e-11
-2.37183091104e-11
-4.15743987617e-11
-7.22076144994e-11
-1.23609999417e-10
-2.06839376664e-10
-3.33702006891e-10
-5.06573027975e-10
-6.91391937239e-10
-8.16232256569e-10
-8.13192209767e-10
-6.5226643693e-10
-3.45255262714e-10
6.56125017188e-11
5.25282398424e-10
9.81467007012e-10
1.39283950114e-09
1.72983328756e-09
1.97086370869e-09
2.09695690295e-09
2.08802123128e-09
1.92516576628e-09
1.60436976395e-09
1.16237739583e-09
6.9608210873e-10
3.31046067025e-10
1.26925706205e-10
4.03356236205e-11
8.15144699273e-12
-1.86605100073e-12
-3.77964128201e-12
-3.19164783687e-12
-2.13284002254e-12
-1.23161046463e-12
-6.10944062468e-13
-2.36838410709e-13
-4.23491941103e-14
3.56651450088e-14
5.06350156455e-14
4.6554883555e-14
3.06712506455e-14
0
0
0
0
0
0
0
0
0
0
-8.36156646066e-14
-1.84889633757e-13
-3.24692415156e-13
-5.39851666682e-13
-8.99100409967e-13
-1.52834036992e-12
-2.65398687536e-12
-4.68158498357e-12
-8.33519923278e-12
-1.49014371096e-11
-2.66478305181e-11
-4.75176300003e-11
-8.42255548862e-11
-1.47789650235e-10
-2.54973314014e-10
-4.27411251931e-10
-6.80823696076e-10
-9.84245559564e-10
-1.23173566795e-09
-1.3028304977e-09
-1.13602819087e-09
-7.4399384872e-10
-1.91826078171e-10
4.35993814246e-10
1.06203559531e-09
1.62801894249e-09
2.09475622545e-09
2.43542318608e-09
2.62657626719e-09
2.64106172803e-09
2.4489723346e-09
2.03594738578e-09
1.44473063903e-09
8.14682254058e-10
3.38898837365e-10
1.00988539113e-10
1.69419328923e-11
-7.18041005839e-12
-1.08369467845e-11
-8.75602424526e-12
-5.87817459236e-12
-3.56479804266e-12
-1.99248914474e-12
-1.01706798254e-12
-4.56129557558e-13
-1.63012836876e-13
-3.23622723273e-14
1.1695774897e-14
2.4941956849e-14
2.07692847705e-14
0
0
0
0
0
0
0
0
0
0
-7.69962010563e-14
-1.76135978236e-13
-3.20440406071e-13
-5.49240850714e-13
-9.35882829257e-13
-1.61640301955e-12
-2.83948985652e-12
-5.05789714713e-12
-9.09429131771e-12
-1.64401490275e-11
-2.9787732279e-11
-5.39571889437e-11
-9.74484141848e-11
-1.74981916437e-10
-3.108397603e-10
-5.41330262757e-10
-9.08189361802e-10
-1.4138101675e-09
-1.9349714007e-09
-2.25017905368e-09
-2.20422469685e-09
-1.78771665385e-09
-1.09893770962e-09
-2.72793002528e-10
5.69997128291e-10
1.34274516624e-09
1.99121811316e-09
2.4821917968e-09
2.78913983373e-09
2.88000327781e-09
2.71455929074e-09
2.26528646875e-09
1.57558542831e-09
8.26411345202e-10
2.82062948552e-10
4.36269809138e-11
-2.04572909969e-11
-2.85934851507e-11
-2.24485162854e-11
-1.4898406775e-11
-9.09575724258e-12
-5.2497914582e-12
-2.881115136e-12
-1.49193243702e-12
-7.14496849574e-13
-3.06491753181e-13
-1.13511572497e-13
-3.4422028802e-14
-2.90126059164e-16
9.45746802855e-15
0
0
0
0
0
0
0
0
0
0
-7.24249734417e-14
-1.69717990551e-13
-3.17575456869e-13
-5.58452197008e-13
-9.7097933346e-13
-1.70178458112e-12
-3.02221051627e-12
-5.43287082875e-12
-9.85691356995e-12
-1.79966536815e-11
-3.29879139339e-11
-6.05863422643e-11
-1.11257827052e-10
-2.03971479163e-10
-3.72196559335e-10
-6.72034493085e-10
-1.18707247948e-09
-2.00157179934e-09
-3.03652251042e-09
-3.91652866757e-09
-4.27094011585e-09
-4.00609794187e-09
-3.2587257109e-09
-2.24497803874e-09
-1.15806325254e-09
-1.3228946471e-10
7.53652970942e-10
1.45842734626e-09
1.95668084444e-09
2.22010674108e-09
2.2081962317e-09
1.88507007443e-09
1.28423687578e-09
5.96695479387e-10
1.16063305661e-10
-5.62064932424e-11
-7.44102866195e-11
-5.65474020271e-11
-3.67011754948e-11
-2.21423695422e-11
-1.2795314692e-11
-7.1604580522e-12
-3.8850084732e-12
-2.03139852996e-12
-1.01181544908e-12
-4.74130573849e-13
-2.09252788121e-13
-8.87885999021e-14
-2.99067098091e-14
-3.74706952487e-15
0
0
0
0
0
0
0
0
0
0
-6.88386057424e-14
-1.64258090113e-13
-3.14603034507e-13
-5.65684125822e-13
-1.0016257858e-12
-1.77959507276e-12
-3.19290227772e-12
-5.78833391242e-12
-1.05862100744e-11
-1.9494168133e-11
-3.6085007769e-11
-6.70524288398e-11
-1.24888019012e-10
-2.33085453385e-10
-4.35390725482e-10
-8.11699442011e-10
-1.50178475107e-09
-2.72244867655e-09
-4.53007203726e-09
-6.3696133331e-09
-7.50623543053e-09
-7.66464182382e-09
-7.01108051015e-09
-5.87375887734e-09
-4.55199716456e-09
-3.2513959288e-09
-2.08761017788e-09
-1.11293169836e-09
-3.45615537108e-10
2.04153211505e-10
5.15983168538e-10
5.61788335139e-10
3.53427478518e-10
2.71357839817e-11
-1.85376474535e-10
-2.02823515906e-10
-1.4495197792e-10
-9.05545873127e-11
-5.32351208675e-11
-3.0284491835e-11
-1.68726626338e-11
-9.24655470139e-12
-4.98152492684e-12
-2.62646519195e-12
-1.34552288727e-12
-6.66068017149e-13
-3.20500636918e-13
-1.52237470782e-13
-6.45876675627e-14
-1.9304677991e-14
0
0
0
0
0
0
0
0
0
0
-6.55026896374e-14
-1.58761449027e-13
-3.10465719899e-13
-5.69707813133e-13
-1.02590924206e-12
-1.84616309519e-12
-3.34398717321e-12
-6.10831204809e-12
-1.12480231956e-11
-2.08584231811e-11
-3.89145013102e-11
-7.2984035616e-11
-1.37485381715e-10
-2.60318028628e-10
-4.95588210678e-10
-9.48350646459e-10
-1.82169927962e-09
-3.49505510498e-09
-6.23489541898e-09
-9.32549324787e-09
-1.15698045253e-08
-1.24194965876e-08
-1.20430003289e-08
-1.08917878304e-08
-9.3921224882e-09
-7.83847679342e-09
-6.39442920479e-09
-5.12704312976e-09
-4.04341919523e-09
-3.12232256119e-09
-2.34183669825e-09
-1.7003411338e-09
-1.21391065454e-09
-8.72162593889e-10
-6.11200063361e-10
-3.89620171981e-10
-2.2865726434e-10
-1.28969666796e-10
-7.12879786389e-11
-3.89759666969e-11
-2.11681881229e-11
-1.14347116804e-11
-6.13697891149e-12
-3.26201903203e-12
-1.70932092849e-12
-8.80129712068e-13
-4.46830667787e-13
-2.24910578295e-13
-1.04658281686e-13
-3.75121905714e-14
0
0
0
0
0
0
0
0
0
0
-6.20157991045e-14
-1.52623059219e-13
-3.04532446465e-13
-5.69824812077e-13
-1.04270065967e-12
-1.89902317246e-12
-3.46978584393e-12
-6.37988840745e-12
-1.18132545266e-11
-2.20236163052e-11
-4.13255084346e-11
-7.80280272971e-11
-1.4820245047e-10
-2.83574268561e-10
-5.47427459872e-10
-1.06770997996e-09
-2.10701815012e-09
-4.20284727481e-09
-7.85254359784e-09
-1.22388348947e-08
-1.57186352398e-08
-1.74318188339e-08
-1.75053715269e-08
-1.6488632697e-08
-1.49259645548e-08
-1.32010179925e-08
-1.15288943591e-08
-9.99457710126e-09
-8.59400542753e-09
-7.26896807552e-09
-5.94291718177e-09
-4.56991463603e-09
-3.19596685318e-09
-1.98382337571e-09
-1.11351654751e-09
-5.98945109229e-10
-3.18702090572e-10
-1.69071591507e-10
-8.9747251241e-11
-4.77501245028e-11
-2.54803137946e-11
-1.36348412764e-11
-7.30959155135e-12
-3.91804946707e-12
-2.09350800008e-12
-1.1117415601e-12
-5.86256302149e-13
-3.06057895794e-13
-1.49942233293e-13
-5.8417190286e-14
0
0
0
0
0
0
0
0
0
0
-5.81953737679e-14
-1.45513994515e-13
-2.96467622541e-13
-5.65707104388e-13
-1.05145032004e-12
-1.93674428629e-12
-3.56652331873e-12
-6.59373959352e-12
-1.22597881285e-11
-2.29378993082e-11
-4.31955836216e-11
-8.18895531366e-11
-1.56308305574e-10
-3.00983612659e-10
-5.85944693673e-10
-1.15607408569e-09
-2.31842447372e-09
-4.73035985079e-09
-9.08229668645e-09
-1.45373307286e-08
-1.91409860488e-08
-2.17542260935e-08
-2.24127804956e-08
-2.17020019759e-08
-2.02420759265e-08
-1.84848141236e-08
-1.66898761662e-08
-1.49605238511e-08
-1.32848748169e-08
-1.15716211058e-08
-9.69283579493e-09
-7.56096719886e-09
-5.25716939493e-09
-3.12969670756e-09
-1.6213449264e-09
-8.05563244546e-10
-4.0594317734e-10
-2.07445305092e-10
-1.07293982202e-10
-5.60790036495e-11
-2.95890138647e-11
-1.5750695288e-11
-8.45471068744e-12
-4.57246879205e-12
-2.48656501748e-12
-1.35478438825e-12
-7.35621074142e-13
-3.94161537886e-13
-1.99798289764e-13
-8.18336794155e-14
0
0
0
0
0
0
0
0
0
0
-5.38278301948e-14
-1.37046979714e-13
-2.85854286081e-13
-5.5697614313e-13
-1.05172321033e-12
-1.95844496857e-12
-3.63193264284e-12
-6.74410888754e-12
-1.25735476163e-11
-2.35674009539e-11
-4.44428625421e-11
-8.43670377217e-11
-1.61291356313e-10
-3.11207234056e-10
-6.07514123025e-10
-1.20324893978e-09
-2.4261788533e-09
-4.98833678169e-09
-9.67858541313e-09
-1.57137475441e-08
-2.10546106319e-08
-2.44035103048e-08
-2.56777234332e-08
-2.54176152093e-08
-2.42480236871e-08
-2.26443533748e-08
-2.08889794165e-08
-1.90968529307e-08
-1.72516482966e-08
-1.52397298524e-08
-1.2898405054e-08
-1.01163937251e-08
-7.01624783958e-09
-4.1086603302e-09
-2.05541775867e-09
-9.81842381736e-10
-4.80664524069e-10
-2.40572478312e-10
-1.22606835032e-10
-6.34459244891e-11
-3.32826238359e-11
-1.76903744839e-11
-9.52937230127e-12
-5.20341235819e-12
-2.8764999242e-12
-1.60243040396e-12
-8.91081432692e-13
-4.87155064199e-13
-2.53238136007e-13
-1.074178327e-13
0
0
0
0
0
0
0
0
0
0
-4.84977349363e-14
-1.26554670839e-13
-2.71955113276e-13
-5.42940554628e-13
-1.04289324695e-12
-1.96344271674e-12
-3.66491680843e-12
-6.82865893359e-12
-1.27490337377e-11
-2.38987953284e-11
-4.50344233867e-11
-8.53773304755e-11
-1.62935602658e-10
-3.13670894106e-10
-6.1057016577e-10
-1.2048320152e-09
-2.4174278546e-09
-4.93789366419e-09
-9.53023783722e-09
-1.55130251147e-08
-2.10070289834e-08
-2.47268099114e-08
-2.64842537513e-08
-2.67080225045e-08
-2.5952993097e-08
-2.46637405845e-08
-2.31141314358e-08
-2.14184823251e-08
-1.95588244949e-08
-1.74153190188e-08
-1.48174050436e-08
-1.16566715654e-08
-8.09314802449e-09
-4.72880953075e-09
-2.34350856011e-09
-1.10368571402e-09
-5.34598483115e-10
-2.65499626113e-10
-1.34584186345e-10
-6.94202818512e-11
-3.63830377688e-11
-1.93744908668e-11
-1.04945736436e-11
-5.78953793502e-12
-3.25057615339e-12
-1.84680563435e-12
-1.04786754896e-12
-5.82294289679e-13
-3.08856139019e-13
-1.34637615164e-13
0
0
0
0
0
0
0
0
0
0
-4.15188335506e-14
-1.13017998336e-13
-2.53658361135e-13
-5.22544946722e-13
-1.02407579557e-12
-1.95115526784e-12
-3.66542972415e-12
-6.84839789009e-12
-1.2789503543e-11
-2.39403253382e-11
-4.49898071577e-11
-8.49664493301e-11
-1.61353392274e-10
-3.0866446282e-10
-5.95914292831e-10
-1.16318809659e-09
-2.29936590143e-09
-4.599754006e-09
-8.68698821518e-09
-1.40019006928e-08
-1.90164478901e-08
-2.2622216114e-08
-2.45752818714e-08
-2.51642985291e-08
-2.48223761209e-08
-2.39177660973e-08
-2.268616669e-08
-2.12282827768e-08
-1.95272752808e-08
-1.74745731382e-08
-1.49195990099e-08
-1.17790570151e-08
-8.22916217916e-09
-4.86108070715e-09
-2.43874964742e-09
-1.15647989426e-09
-5.62783496838e-10
-2.80423823787e-10
-1.42532885634e-10
-7.37190169162e-11
-3.8765059341e-11
-2.07412571749e-11
-1.13155531024e-11
-6.30882167325e-12
-3.59384975682e-12
-2.07775219759e-12
-1.19945592637e-12
-6.75724621873e-13
-3.64577514693e-13
-1.62629909449e-13
0
0
0
0
0
0
0
0
0
0
-3.20302267377e-14
-9.52487384442e-14
-2.29719994901e-13
-4.94648441665e-13
-9.94424237702e-13
-1.92139476583e-12
-3.63473795364e-12
-6.8078632634e-12
-1.27069914498e-11
-2.37214575367e-11
-4.43797069224e-11
-8.33052517949e-11
-1.56970419823e-10
-2.97289417634e-10
-5.66534795694e-10
-1.08687593294e-09
-2.09786095067e-09
-4.05526254527e-09
-7.37914681063e-09
-1.16378552472e-08
-1.57299450722e-08
-1.88134890513e-08
-2.06449386957e-08
-2.13869958334e-08
-2.13396268321e-08
-2.07760710924e-08
-1.98786187892e-08
-1.87273290418e-08
-1.7309405234e-08
-1.55401227744e-08
-1.33066730086e-08
-1.05600367735e-08
-7.4652845276e-09
-4.51489637633e-09
-2.34034347618e-09
-1.13973564677e-09
-5.64765497157e-10
-2.85047389855e-10
-1.46283121441e-10
-7.624598758e-11
-4.03702360463e-11
-2.17512454731e-11
-1.19631921443e-11
-6.7386720633e-12
-3.88879069919e-12
-2.28231776261e-12
-1.33713749923e-12
-7.62216064642e-13
-4.17465745656e-13
-1.90066989016e-13
0
0
0
0
0
0
0
0
0
0
-1.9281722292e-14
-7.23557994285e-14
-1.99331082288e-13
-4.58659097522e-13
-9.53810473335e-13
-1.87505935111e-12
-3.57605359947e-12
-6.7155438869e-12
-1.25221453688e-11
-2.32911612959e-11
-4.33199776558e-11
-8.06709125062e-11
-1.50466902575e-10
-2.81268969985e-10
-5.26980967469e-10
-9.88541292352e-10
-1.85032035251e-09
-3.42298103833e-09
-5.94065193184e-09
-9.09303254224e-09
-1.21580212457e-08
-1.45527877463e-08
-1.60689849291e-08
-1.67811406122e-08
-1.6878717621e-08
-1.65489230111e-08
-1.59226991255e-08
-1.5059980927e-08
-1.3953839491e-08
-1.2546942311e-08
-1.07671901406e-08
-8.5967052724e-09
-6.17353604314e-09
-3.85791005312e-09
-2.09933165654e-09
-1.0674918716e-09
-5.44587711708e-10
-2.80578522342e-10
-1.46197311464e-10
-7.70995032792e-11
-4.12117984411e-11
-2.23905059525e-11
-1.24160082542e-11
-7.05717266988e-12
-4.1159636537e-12
-2.44501536795e-12
-1.45003679385e-12
-8.35120954113e-13
-4.63604605724e-13
-2.1501502975e-13
0
0
0
0
0
0
0
0
0
0
-3.12521000049e-15
-4.44944070886e-14
-1.62995335575e-13
-4.15493841887e-13
-9.03837869791e-13
-1.81515108366e-12
-3.49544617518e-12
-6.58442277399e-12
-1.22637623432e-11
-2.27148151507e-11
-4.19615586758e-11
-7.74172508275e-11
-1.42688042788e-10
-2.62671957954e-10
-4.82479308469e-10
-8.81921000311e-10
-1.59468475446e-09
-2.81386231924e-09
-4.65063743087e-09
-6.89386309886e-09
-9.09132599173e-09
-1.08571342546e-08
-1.20276592304e-08
-1.26268487277e-08
-1.2767803055e-08
-1.25735290681e-08
-1.21349018598e-08
-1.14961195174e-08
-1.06559891582e-08
-9.58058421213e-09
-8.23061819625e-09
-6.60961057619e-09
-4.82634351023e-09
-3.12536971425e-09
-1.79653911213e-09
-9.62981468665e-10
-5.09430002893e-10
-2.69371614759e-10
-1.43073893454e-10
-7.65480203909e-11
-4.13704850458e-11
-2.26719536545e-11
-1.26628044349e-11
-7.24563646164e-12
-4.25601593115e-12
-2.54910172472e-12
-1.5257697284e-12
-8.86677784662e-13
-4.98116043946e-13
-2.34795110847e-13
0
0
0
0
0
0
0
0
0
0
1.52522916961e-14
-1.38990770404e-14
-1.23700044124e-13
-3.68842364304e-13
-8.49163173322e-13
-1.74808653847e-12
-3.4029861427e-12
-6.43259794425e-12
-1.19680441289e-11
-2.20700287287e-11
-4.04776077571e-11
-7.3939056533e-11
-1.34543392624e-10
-2.43624427077e-10
-4.38077250558e-10
-7.79145586389e-10
-1.36013781638e-09
-2.29542125466e-09
-3.63145721372e-09
-5.22573517363e-09
-6.79441450043e-09
-8.08326262287e-09
-8.96871936428e-09
-9.44969773878e-09
-9.59155008284e-09
-9.47388888077e-09
-9.15928256596e-09
-8.68056559349e-09
-8.04069132439e-09
-7.22222052519e-09
-6.20756973778e-09
-5.01140678178e-09
-3.71722010409e-09
-2.48770661e-09
-1.50450296125e-09
-8.50105895312e-10
-4.67491262652e-10
-2.54353493194e-10
-1.37984260865e-10
-7.49851496073e-11
-4.09854073323e-11
-2.263731627e-11
-1.27077368747e-11
-7.2940314009e-12
-4.2943740691e-12
-2.58004659278e-12
-1.55256079475e-12
-9.09113308456e-13
-5.15586952682e-13
-2.4599228828e-13
0
0
0
0
0
0
0
0
0
0
3.23752477283e-14
1.39149199106e-14
-8.82237645871e-14
-3.26554047154e-13
-7.98919798151e-13
-1.6850622738e-12
-3.31385690302e-12
-6.28371623501e-12
-1.16773782019e-11
-2.14414629255e-11
-3.90488515425e-11
-7.06347715154e-11
-1.2691232403e-10
-2.26072445179e-10
-3.98050849345e-10
-6.89301455849e-10
-1.16406197265e-09
-1.88957143208e-09
-2.88110076273e-09
-4.04009580367e-09
-5.18319684836e-09
-6.13975784866e-09
-6.81715203222e-09
-7.20321923963e-09
-7.3346929681e-09
-7.26306381916e-09
-7.03169201752e-09
-6.66533341381e-09
-6.16931055213e-09
-5.53648563847e-09
-4.76194776951e-09
-3.86454756062e-09
-2.90795044482e-09
-2.0020162353e-09
-1.26304196555e-09
-7.4688251192e-10
-4.26133549992e-10
-2.3846494024e-10
-1.32101895577e-10
-7.28821338533e-11
-4.02474259347e-11
-2.23641044584e-11
-1.25813098774e-11
-7.21237584829e-12
-4.23143184106e-12
-2.53357488119e-12
-1.52457313607e-12
-8.97505518319e-13
-5.11559063352e-13
-2.45038912997e-13
0
0
0
0
0
0
0
0
0
0
4.20057175246e-14
2.98366430008e-14
-6.73445714351e-14
-3.00784150555e-13
-7.66779605929e-13
-1.64194019122e-12
-3.24785871559e-12
-6.16564163205e-12
-1.14371327811e-11
-2.09133398033e-11
-3.7846271189e-11
-6.78676856855e-11
-1.20562329228e-10
-2.11622074834e-10
-3.65643815496e-10
-6.18338903364e-10
-1.01460117545e-09
-1.59455688383e-09
-2.35892822609e-09
-3.2364935465e-09
-4.10288989898e-09
-4.83889184263e-09
-5.37363091399e-09
-5.69069340636e-09
-5.8102054885e-09
-5.76610745882e-09
-5.58926090288e-09
-5.29891139426e-09
-4.9015703904e-09
-4.39615743503e-09
-3.78472405277e-09
-3.08696081587e-09
-2.35235507244e-09
-1.65803273429e-09
-1.08204706305e-09
-6.63900655627e-10
-3.90970074795e-10
-2.24283007784e-10
-1.26565824639e-10
-7.0748162046e-11
-3.93971443745e-11
-2.19779675636e-11
-1.23578154601e-11
-7.04931376314e-12
-4.1002185878e-12
-2.43090757577e-12
-1.45322867538e-12
-8.56373536411e-13
-4.8679466131e-13
-2.30773658456e-13
0
0
0
0
0
0
0
0
0
0
3.74824801365e-14
2.50276290415e-14
-7.10286539529e-14
-3.02455376731e-13
-7.64772610598e-13
-1.63244379615e-12
-3.22188186446e-12
-6.10182860212e-12
-1.12849361169e-11
-2.05542489753e-11
-3.70058766553e-11
-6.59189735114e-11
-1.16074384915e-10
-2.01443322498e-10
-3.43048241121e-10
-5.69706456234e-10
-9.14696554962e-10
-1.40349356724e-09
-2.03037010771e-09
-2.7399598163e-09
-3.44064695936e-09
-4.04268009076e-09
-4.48882617309e-09
-4.76139123948e-09
-4.87148160549e-09
-4.8429017234e-09
-4.69904597765e-09
-4.45573498645e-09
-4.11999552605e-09
-3.69402575153e-09
-3.18341268379e-09
-2.60748697703e-09
-2.00676448371e-09
-1.43954310964e-09
-9.6279245632e-10
-6.06713903611e-10
-3.65805514037e-10
-2.13812549683e-10
-1.22356830228e-10
-6.90698699124e-11
-3.86975576211e-11
-2.16418894178e-11
-1.21533513749e-11
-6.89548771342e-12
-3.97341044342e-12
-2.32817354739e-12
-1.37736823187e-12
-8.07783212518e-13
-4.54298117896e-13
-2.10063141092e-13
0
0
0
0
0
0
0
0
0
0
2.34048884666e-14
6.67997532323e-15
-9.05439822765e-14
-3.21971144167e-13
-7.83063560482e-13
-1.64728816987e-12
-3.22844642901e-12
-6.088966182e-12
-1.12265241268e-11
-2.03892709576e-11
-3.6593248179e-11
-6.49355917772e-11
-1.13780783103e-10
-1.96225074724e-10
-3.31507684572e-10
-5.45097547548e-10
-8.64860364328e-10
-1.30987271638e-09
-1.87199342328e-09
-2.50313265784e-09
-3.12628999111e-09
-3.66511949274e-09
-4.06891996019e-09
-4.31975795145e-09
-4.42479631941e-09
-4.40321684701e-09
-4.27493071261e-09
-4.05411725434e-09
-3.7479771847e-09
-3.3601250441e-09
-2.89760315044e-09
-2.37932578198e-09
-1.84148384182e-09
-1.33380171416e-09
-9.03897682849e-10
-5.77772791856e-10
-3.52806688035e-10
-2.0832280127e-10
-1.20129912765e-10
-6.81810439625e-11
-3.83320277457e-11
-2.14721675069e-11
-1.2054311411e-11
-6.82262848577e-12
-3.91322821806e-12
-2.27852818214e-12
-1.3394659976e-12
-7.81880607755e-13
-4.36141588303e-13
-1.98144315138e-13
0
0
0
0
0
0
0
0
0
)
;

boundaryField
{
    inlet
    {
        type            calculated;
        value           uniform 0;
    }
    outlet
    {
        type            calculated;
        value           uniform 0;
    }
    bottomWall
    {
        type            calculated;
        value           uniform 0;
    }
    topWall
    {
        type            calculated;
        value           uniform 0;
    }
    frontAndBack
    {
        type            empty;
    }
}


// ************************************************************************* //
