/*--------------------------------*- C++ -*----------------------------------*\
| =========                 |                                                 |
| \\      /  F ield         | OpenFOAM: The Open Source CFD Toolbox           |
|  \\    /   O peration     | Version:  2512                                  |
|   \\  /    A nd           | Website:  www.openfoam.com                      |
|    \\/     M anipulation  |                                                 |
\*---------------------------------------------------------------------------*/
FoamFile
{
    version     2.0;
    format      ascii;
    arch        "LSB;label=32;scalar=64";
    class       volScalarField;
    location    "1";
    object      topOSensas1;
}
// * * * * * * * * * * * * * * * * * * * * * * * * * * * * * * * * * * * * * //

dimensions      [0 0 0 0 0 0 0];

internalField   nonuniform List<scalar> 
1440
(
0
-1.78066815611e-13
-3.07711794716e-13
-4.27195761482e-13
-5.79194083287e-13
-8.26252906844e-13
-1.26063484854e-12
-2.02853340829e-12
-3.36582081039e-12
-5.65024968079e-12
-9.47228231683e-12
-1.57192841672e-11
-2.56479313466e-11
-4.08747597984e-11
-6.31126395643e-11
-9.34395730423e-11
-1.30882283036e-10
-1.70495627928e-10
-2.0223581773e-10
-2.12957542444e-10
-1.91067717694e-10
-1.30850797511e-10
-3.42239087837e-11
9.01815987639e-11
2.29597822502e-10
3.70021676553e-10
4.98385488641e-10
6.03596513877e-10
6.76677897789e-10
7.10635267563e-10
7.00812749676e-10
6.46328373127e-10
5.52490115431e-10
4.32751851378e-10
3.07454496425e-10
1.97442571854e-10
1.15381936915e-10
6.21689113914e-11
3.12304634123e-11
1.47277965279e-11
6.54832776222e-12
2.76913484766e-12
1.15195163273e-12
5.21863097969e-13
3.03091911442e-13
2.32208862614e-13
1.99318757047e-13
1.66670376402e-13
1.28864293251e-13
9.14992366461e-14
5.13720244926e-14
0
0
0
0
0
0
0
0
0
0
-1.7535958315e-13
-2.99027714762e-13
-4.17405422188e-13
-5.71475924465e-13
-8.23396257979e-13
-1.26686034181e-12
-2.05222523155e-12
-3.42418247676e-12
-5.77809361601e-12
-9.73868593636e-12
-1.62584215306e-11
-2.67144996792e-11
-4.29426550195e-11
-6.69991128262e-11
-1.00416975113e-10
-1.4261269099e-10
-1.88462047365e-10
-2.26485398178e-10
-2.41144446467e-10
-2.18675863995e-10
-1.52384594397e-10
-4.45927425745e-11
9.46173699605e-11
2.50556834424e-10
4.07367913293e-10
5.50498749797e-10
6.67782590011e-10
7.49436213258e-10
7.87723196897e-10
7.77194717696e-10
7.16288013402e-10
6.10327980022e-10
4.74347028454e-10
3.32180442175e-10
2.08777521473e-10
1.18868112389e-10
6.23499430174e-11
3.04927252162e-11
1.3983490046e-11
6.02551203293e-12
2.4567332608e-12
9.85590555896e-13
4.43731383822e-13
2.73486861437e-13
2.26679570141e-13
2.03579220911e-13
1.72757886475e-13
1.33201046589e-13
9.51099248141e-14
5.45849487137e-14
0
0
0
0
0
0
0
0
0
0
-1.53448131611e-13
-2.71250686468e-13
-3.91378250443e-13
-5.5244765e-13
-8.16233948079e-13
-1.27976219809e-12
-2.10178043817e-12
-3.54454815944e-12
-6.03855059711e-12
-1.02772447452e-11
-1.7344517177e-11
-2.8861836326e-11
-4.71154643423e-11
-7.48838804545e-11
-1.14701300908e-10
-1.66936115057e-10
-2.26282104536e-10
-2.7821173523e-10
-3.01872365948e-10
-2.78677376606e-10
-1.99797246312e-10
-6.84697944401e-11
1.02043213938e-10
2.92893836534e-10
4.8426251601e-10
6.58479746723e-10
8.01168716029e-10
9.00915396878e-10
9.48469572365e-10
9.36700346515e-10
8.62488201356e-10
7.3097994337e-10
5.60416448535e-10
3.82242196677e-10
2.30599646431e-10
1.24730310367e-10
6.19467271949e-11
2.85913253531e-11
1.22695507474e-11
4.85293938767e-12
1.74996372129e-12
5.91985996921e-13
2.37998376438e-13
1.72697485974e-13
1.80927604589e-13
1.84249711776e-13
1.64008405917e-13
1.27154067373e-13
9.1535306578e-14
5.31030209362e-14
0
0
0
0
0
0
0
0
0
0
-1.28948323811e-13
-2.41131086621e-13
-3.65039657951e-13
-5.37073924786e-13
-8.19093648438e-13
-1.31313408722e-12
-2.19023990538e-12
-3.73854189104e-12
-6.44066695208e-12
-1.10931260464e-11
-1.89794279117e-11
-3.20978172039e-11
-5.34297159131e-11
-8.69235218446e-11
-1.3684465665e-10
-2.05457064865e-10
-2.87743493267e-10
-3.64211665426e-10
-4.04543338256e-10
-3.81532912889e-10
-2.82652600234e-10
-1.12805643213e-10
1.09212976734e-10
3.57452285231e-10
6.05470192001e-10
8.30524075108e-10
1.01475920515e-09
1.14426851885e-09
1.20745173989e-09
1.19438666189e-09
1.09908295926e-09
9.2582226795e-10
6.97725288175e-10
4.59318613213e-10
2.61334013731e-10
1.30874418264e-10
5.96288230326e-11
2.48686498856e-11
9.29686441222e-12
2.90862704277e-12
5.95134187781e-13
-5.63007995742e-14
-1.1274696605e-13
-1.23463250507e-14
8.45535603656e-14
1.3341372892e-13
1.35394572533e-13
1.09284171597e-13
8.05379143095e-14
4.73043557219e-14
0
0
0
0
0
0
0
0
0
0
-1.08433990174e-13
-2.16049710718e-13
-3.45161938094e-13
-5.30889001811e-13
-8.36152855418e-13
-1.36958354913e-12
-2.31800955955e-12
-4.00293351308e-12
-6.97489141712e-12
-1.21662771487e-11
-2.11281701814e-11
-3.63742344544e-11
-6.18456456616e-11
-1.0319825843e-10
-1.67429225627e-10
-2.60292762166e-10
-3.78597621438e-10
-4.95838151254e-10
-5.65808703684e-10
-5.46575849703e-10
-4.19457949328e-10
-1.92154501351e-10
1.07525724884e-10
4.42319053171e-10
7.75531626027e-10
1.07684837726e-09
1.3234629146e-09
1.49807788772e-09
1.58584114935e-09
1.57260896745e-09
1.44746158737e-09
1.21216095884e-09
8.96245807455e-10
5.65051604888e-10
2.97556045283e-10
1.33659076314e-10
5.33752274963e-11
1.84296276779e-11
4.71795819439e-12
7.32253947536e-14
-1.04130329661e-12
-9.63532819792e-13
-6.04043388381e-13
-2.75290899275e-13
-5.6218783787e-14
5.66443248979e-14
9.16696967971e-14
8.3181781739e-14
6.50939303731e-14
3.95109549844e-14
0
0
0
0
0
0
0
0
0
0
-9.35427743466e-14
-1.97529742432e-13
-3.32211561381e-13
-5.32777373036e-13
-8.64408774475e-13
-1.4437710889e-12
-2.47639231831e-12
-4.32343882226e-12
-7.61695399297e-12
-1.34545729694e-11
-2.37184889029e-11
-4.15746834003e-11
-7.22081038985e-11
-1.23610902346e-10
-2.06841134133e-10
-3.33705536655e-10
-5.06580177545e-10
-6.91406086798e-10
-8.16256764448e-10
-8.13227474663e-10
-6.5230961671e-10
-3.45302242507e-10
6.55653761555e-11
5.25237630875e-10
9.81425982404e-10
1.39280279458e-09
1.7298009945e-09
1.97083570358e-09
2.0969330127e-09
2.08800132891e-09
1.92514978099e-09
1.60435760127e-09
1.16236879284e-09
6.96076522814e-10
3.31042720146e-10
1.2692379961e-10
4.03345612753e-11
8.15086162946e-12
-1.86637183168e-12
-3.77981680226e-12
-3.19174391525e-12
-2.13289275351e-12
-1.23163954089e-12
-6.10960203188e-13
-2.36847444117e-13
-4.23542890762e-14
3.5662262164e-14
5.06333988777e-14
4.65540093987e-14
3.06708572026e-14
0
0
0
0
0
0
0
0
0
0
-8.34771104978e-14
-1.84660553761e-13
-3.24574406593e-13
-5.39835230438e-13
-8.99139751128e-13
-1.52840116487e-12
-2.65405653246e-12
-4.68165886477e-12
-8.33528071258e-12
-1.49015377496e-11
-2.66479749542e-11
-4.75178670263e-11
-8.42259773007e-11
-1.47790461553e-10
-2.54974969236e-10
-4.27414767877e-10
-6.80831323664e-10
-9.84262036852e-10
-1.23176636592e-09
-1.30287632553e-09
-1.13608498868e-09
-7.44055674125e-10
-1.91887861635e-10
4.35935383738e-10
1.06198224172e-09
1.62797130547e-09
2.09471433779e-09
2.43538682537e-09
2.62654518543e-09
2.64103577791e-09
2.44895148414e-09
2.03593159754e-09
1.44471963322e-09
8.14675304717e-10
3.38894834896e-10
1.0098634486e-10
1.69407466479e-11
-7.18104829429e-12
-1.0837290029e-11
-8.75620920954e-12
-5.87827462885e-12
-3.56485242955e-12
-1.99251892016e-12
-1.01708442873e-12
-4.56138734625e-13
-1.63018006611e-13
-3.23651970398e-14
1.16941345013e-14
2.49410681544e-14
2.07688826855e-14
0
0
0
0
0
0
0
0
0
0
-7.68128887707e-14
-1.75815247998e-13
-3.20209863097e-13
-5.4912612246e-13
-9.35845319092e-13
-1.61640601036e-12
-2.83951546457e-12
-5.05793574225e-12
-9.09434145443e-12
-1.64402169842e-11
-2.978783578e-11
-5.39573667062e-11
-9.74487451554e-11
-1.74982583015e-10
-3.10841194416e-10
-5.41333497998e-10
-9.08196891241e-10
-1.41382788777e-09
-1.93500697069e-09
-2.25023433887e-09
-2.20429434605e-09
-1.78779285911e-09
-1.09901394625e-09
-2.72865132268e-10
5.69931186703e-10
1.34268614419e-09
1.99116601568e-09
2.4821463426e-09
2.7891007402e-09
2.87997042884e-09
2.71453276926e-09
2.26526639503e-09
1.57557159248e-09
8.26402838615e-10
2.82058240957e-10
4.36244958521e-11
-2.04585967308e-11
-2.85941725406e-11
-2.24488797427e-11
-1.48986000242e-11
-9.09586065686e-12
-5.24984721729e-12
-2.88114547385e-12
-1.49194912425e-12
-7.14506141791e-13
-3.06496987162e-13
-1.13514537129e-13
-3.44236941881e-14
-2.91031439296e-16
9.457055806e-15
0
0
0
0
0
0
0
0
0
0
-7.22217305125e-14
-1.69367411924e-13
-3.17276089507e-13
-5.58265995907e-13
-9.70879827309e-13
-1.70173783083e-12
-3.02219618058e-12
-5.4328759017e-12
-9.85693244112e-12
-1.79966872228e-11
-3.29879717827e-11
-6.05864498634e-11
-1.11258041794e-10
-2.03971942922e-10
-3.72197631175e-10
-6.72037095277e-10
-1.1870790205e-09
-2.00158854456e-09
-3.03655866514e-09
-3.91658733649e-09
-4.27101568959e-09
-4.00618167312e-09
-3.25881024376e-09
-2.24505870644e-09
-1.15813767763e-09
-1.32356747403e-10
7.53592943504e-10
1.45837437612e-09
1.95663473657e-09
2.22006751373e-09
2.20816419433e-09
1.88504565751e-09
1.2842201171e-09
5.96685394197e-10
1.16057924493e-10
-5.62092375445e-11
-7.44116932105e-11
-5.65481290532e-11
-3.67015545765e-11
-2.21425689202e-11
-1.27954204817e-11
-7.16051471895e-12
-3.88503915807e-12
-2.03141535837e-12
-1.0118248106e-12
-4.7413585175e-13
-2.09255784409e-13
-8.8790287484e-14
-2.9907631298e-14
-3.7474918802e-15
0
0
0
0
0
0
0
0
0
0
-6.86317709379e-14
-1.63916897161e-13
-3.14274035485e-13
-5.65452756164e-13
-1.00148014634e-12
-1.77950783725e-12
-3.19285320728e-12
-5.7883081762e-12
-1.05861986353e-11
-1.94941664824e-11
-3.60850165097e-11
-6.70524572425e-11
-1.24888095364e-10
-2.33085658987e-10
-4.3539129165e-10
-8.11701025497e-10
-1.50178923165e-09
-2.72246140897e-09
-4.53010188819e-09
-6.36966442349e-09
-7.50630357763e-09
-7.66471936412e-09
-7.0111606666e-09
-5.87383713509e-09
-4.55207101116e-09
-3.25146417139e-09
-2.08767235481e-09
-1.11298767247e-09
-3.45665212103e-10
2.04110126137e-10
5.15947309339e-10
5.61760575543e-10
3.53408317637e-10
2.71243926044e-11
-1.85382382021e-10
-2.02826446383e-10
-1.44953451628e-10
-9.05553387791e-11
-5.32355087732e-11
-3.02846942943e-11
-1.68727694265e-11
-9.24661165363e-12
-4.9815556746e-12
-2.62648203072e-12
-1.34553225733e-12
-6.66073310515e-13
-3.2050365152e-13
-1.52239174415e-13
-6.45886024557e-14
-1.93051094179e-14
0
0
0
0
0
0
0
0
0
0
-6.53006969996e-14
-1.58436179802e-13
-3.10133706e-13
-5.69452853195e-13
-1.02573225692e-12
-1.84604471859e-12
-3.34390908331e-12
-6.10825885099e-12
-1.12479831514e-11
-2.08583865741e-11
-3.89144591198e-11
-7.29839787878e-11
-1.37485303349e-10
-2.60317932562e-10
-4.95588151832e-10
-9.4835087072e-10
-1.82170068805e-09
-3.49506073136e-09
-6.2349113251e-09
-9.32552383965e-09
-1.15698489631e-08
-1.24195508631e-08
-1.20430600804e-08
-1.08918495928e-08
-9.39218384428e-09
-7.83853612726e-09
-6.39448543089e-09
-5.12709548445e-09
-4.04346705674e-09
-3.12236522748e-09
-2.34187315718e-09
-1.70037004334e-09
-1.2139309365e-09
-8.72174654264e-10
-6.11206221155e-10
-3.89623175593e-10
-2.28658758305e-10
-1.28970422922e-10
-7.1288366868e-11
-3.8976168523e-11
-2.11682942702e-11
-1.14347681756e-11
-6.1370093822e-12
-3.2620357226e-12
-1.70933023132e-12
-8.80134983629e-13
-4.46833681906e-13
-2.24912288469e-13
-1.04659225171e-13
-3.75126288847e-14
0
0
0
0
0
0
0
0
0
0
-6.18244438594e-14
-1.52318022996e-13
-3.0421247398e-13
-5.6956218825e-13
-1.04250483322e-12
-1.898882279e-12
-3.46968445594e-12
-6.37981144397e-12
-1.18131881911e-11
-2.2023545997e-11
-4.13254153903e-11
-7.80278831227e-11
-1.48202209687e-10
-2.83573847553e-10
-5.47426706713e-10
-1.06770863317e-09
-2.10701581372e-09
-4.20284359192e-09
-7.85253972791e-09
-1.22388346245e-08
-1.57186424846e-08
-1.74318353708e-08
-1.750539699e-08
-1.64886654753e-08
-1.49260025715e-08
-1.32010591489e-08
-1.15289367597e-08
-9.99461914481e-09
-8.59404578845e-09
-7.26900553753e-09
-5.94295035971e-09
-4.56994181055e-09
-3.19598643092e-09
-1.98383518579e-09
-1.11352258532e-09
-5.98948046937e-10
-3.18703550251e-10
-1.69072330047e-10
-8.97476304292e-11
-4.77503216511e-11
-2.54804175099e-11
-1.36348965078e-11
-7.30962137175e-12
-3.91806583147e-12
-2.09351714766e-12
-1.11174676464e-12
-5.86259292011e-13
-3.06059600112e-13
-1.49943178839e-13
-5.84176324125e-14
0
0
0
0
0
0
0
0
0
0
-5.80200179841e-14
-1.45234408961e-13
-2.96168117679e-13
-5.65447657762e-13
-1.0512454688e-12
-1.93658831353e-12
-3.56640399312e-12
-6.5936426604e-12
-1.22596982775e-11
-2.29377975219e-11
-4.31954418069e-11
-8.18893239271e-11
-1.56307905016e-10
-3.00982869192e-10
-5.8594324504e-10
-1.15607114632e-09
-2.3184182783e-09
-4.73034634521e-09
-9.0822713489e-09
-1.45372961241e-08
-1.9140951084e-08
-2.17541990029e-08
-2.24127655131e-08
-2.17019997275e-08
-2.02420848731e-08
-1.84848317702e-08
-1.66898998333e-08
-1.49605510928e-08
-1.32849035825e-08
-1.15716496583e-08
-9.69286243287e-09
-7.56098998823e-09
-5.25718644382e-09
-3.12970730652e-09
-1.62135046053e-09
-8.0556597606e-10
-4.05944548605e-10
-2.07446004152e-10
-1.07294343161e-10
-5.60791921498e-11
-2.95891133884e-11
-1.57507484555e-11
-8.4547394828e-12
-4.57248464797e-12
-2.48657391697e-12
-1.35478947635e-12
-7.35624012947e-13
-3.94163222109e-13
-1.99799229651e-13
-8.18341215744e-14
0
0
0
0
0
0
0
0
0
0
-5.36711487319e-14
-1.36796309038e-13
-2.85578943353e-13
-5.56726553462e-13
-1.05151649526e-12
-1.95827996042e-12
-3.6318001242e-12
-6.74399566622e-12
-1.25734373128e-11
-2.3567270737e-11
-4.4442675925e-11
-8.43667301402e-11
-1.61290809103e-10
-3.11206197311e-10
-6.07512049912e-10
-1.20324459305e-09
-2.42616931384e-09
-4.98831496994e-09
-9.67854229057e-09
-1.57136845913e-08
-2.10545404113e-08
-2.44034459948e-08
-2.56776729785e-08
-2.5417581222e-08
-2.42480053044e-08
-2.26443480133e-08
-2.08889839504e-08
-1.9096864364e-08
-1.72516640742e-08
-1.52397478709e-08
-1.28984234328e-08
-1.01164105096e-08
-7.01626110253e-09
-4.10866899625e-09
-2.05542248619e-09
-9.81844793039e-10
-4.80665761803e-10
-2.40573119246e-10
-1.22607169797e-10
-6.34461008488e-11
-3.32827176018e-11
-1.76904248687e-11
-9.52939973191e-12
-5.20342753897e-12
-2.87650848991e-12
-1.60243532959e-12
-8.91084295221e-13
-4.87156714782e-13
-2.53239062844e-13
-1.07418271297e-13
0
0
0
0
0
0
0
0
0
0
-4.83598425187e-14
-1.26332445356e-13
-2.71704629027e-13
-5.42704457476e-13
-1.04268953506e-12
-1.96327334329e-12
-3.66477511851e-12
-6.82853284957e-12
-1.27489061781e-11
-2.38986403592e-11
-4.50341975036e-11
-8.53769548839e-11
-1.62934930831e-10
-3.13669615783e-10
-6.10567599133e-10
-1.20482661467e-09
-2.41741598368e-09
-4.93786659043e-09
-9.53018440617e-09
-1.55129462119e-08
-2.10069385139e-08
-2.47267232165e-08
-2.64841807137e-08
-2.67079670431e-08
-2.59529550514e-08
-2.46637176489e-08
-2.31141205086e-08
-2.14184803071e-08
-1.95588286855e-08
-1.74153272047e-08
-1.48174153425e-08
-1.16566821641e-08
-8.09315716068e-09
-4.72881597487e-09
-2.34351232764e-09
-1.10368773792e-09
-5.34599557772e-10
-2.65500195782e-10
-1.34584489009e-10
-6.94204433883e-11
-3.63831245452e-11
-1.9374537895e-11
-1.04945994364e-11
-5.7895523065e-12
-3.25058431642e-12
-1.84681036037e-12
-1.04787031462e-12
-5.82295895334e-13
-3.08857046502e-13
-1.34638047041e-13
0
0
0
0
0
0
0
0
0
0
-4.13982761454e-14
-1.12821443387e-13
-2.53431556861e-13
-5.22323834065e-13
-1.02387811087e-12
-1.95098495479e-12
-3.66528214302e-12
-6.84826202033e-12
-1.27893619107e-11
-2.39401496817e-11
-4.49895486244e-11
-8.49660186441e-11
-1.61352623822e-10
-3.08663008861e-10
-5.95911398769e-10
-1.16318208462e-09
-2.2993529381e-09
-4.59972527643e-09
-8.6869330374e-09
-1.40018198792e-08
-1.90163543779e-08
-2.2622124547e-08
-2.45752021358e-08
-2.51642349874e-08
-2.48223291831e-08
-2.39177339835e-08
-2.26861467175e-08
-2.12282721495e-08
-1.95272715016e-08
-1.74745741419e-08
-1.49196030783e-08
-1.17790625804e-08
-8.22916775178e-09
-4.86108509797e-09
-2.43875246794e-09
-1.15648151701e-09
-5.62784397112e-10
-2.80424315669e-10
-1.42533152826e-10
-7.37191619673e-11
-3.87651383251e-11
-2.07413004621e-11
-1.13155770725e-11
-6.30883514445e-12
-3.5938574705e-12
-2.07775669867e-12
-1.19945858087e-12
-6.75726174614e-13
-3.64578398232e-13
-1.62630332194e-13
0
0
0
0
0
0
0
0
0
0
-3.19247739251e-14
-9.5074503715e-14
-2.29514677499e-13
-4.94442362342e-13
-9.94234196579e-13
-1.92122587199e-12
-3.63458705407e-12
-6.80772028089e-12
-1.2706838782e-11
-2.37212653786e-11
-4.43794228516e-11
-8.33047800723e-11
-1.56969585021e-10
-2.97287858039e-10
-5.66531745548e-10
-1.08686974797e-09
-2.09784805835e-09
-4.05523531567e-09
-7.37909682992e-09
-1.16377834988e-08
-1.57298619992e-08
-1.88134066786e-08
-2.06448655043e-08
-2.13869358953e-08
-2.13395808975e-08
-2.07760379687e-08
-1.9878596409e-08
-1.87273151473e-08
-1.7309397752e-08
-1.55401199598e-08
-1.33066734109e-08
-1.05600391081e-08
-7.46528760433e-09
-4.51489918245e-09
-2.3403454887e-09
-1.13973689948e-09
-5.64766228375e-10
-2.85047803864e-10
-1.46283352378e-10
-7.62461155638e-11
-4.03703069044e-11
-2.17512848456e-11
-1.19632142048e-11
-6.73868459072e-12
-3.88879794065e-12
-2.28232202581e-12
-1.33714003499e-12
-7.62217560215e-13
-4.17466602667e-13
-1.90067401025e-13
0
0
0
0
0
0
0
0
0
0
-1.91889099275e-14
-7.22004346578e-14
-1.99144560368e-13
-4.58467158365e-13
-9.53628667189e-13
-1.87489336549e-12
-3.57590131907e-12
-6.71539604202e-12
-1.252198445e-11
-2.32909566886e-11
-4.33196750702e-11
-8.06704135225e-11
-1.50466030341e-10
-2.81267369119e-10
-5.26977910973e-10
-9.88535291639e-10
-1.8503083883e-09
-3.42295730859e-09
-5.94061080869e-09
-9.09297508392e-09
-1.21579549661e-08
-1.45527214668e-08
-1.60689251731e-08
-1.67810907675e-08
-1.68786785602e-08
-1.65488940443e-08
-1.5922678799e-08
-1.50599675635e-08
-1.39538314996e-08
-1.25469383196e-08
-1.07671889948e-08
-8.5967059617e-09
-6.17353765239e-09
-3.8579117955e-09
-2.09933305157e-09
-1.06749281191e-09
-5.44588291164e-10
-2.80578863622e-10
-1.46197507651e-10
-7.70996146258e-11
-4.12118612949e-11
-2.23905414464e-11
-1.24160284173e-11
-7.05718425806e-12
-4.11597042438e-12
-2.44501939343e-12
-1.45003921092e-12
-8.35122392936e-13
-4.63605436398e-13
-2.15015430739e-13
0
0
0
0
0
0
0
0
0
0
-3.04262905467e-15
-4.43545809852e-14
-1.62824764746e-13
-4.15314618977e-13
-9.03664198711e-13
-1.8149888361e-12
-3.49529392337e-12
-6.58427191929e-12
-1.22635956437e-11
-2.2714601813e-11
-4.19612440123e-11
-7.74167368815e-11
-1.42687157757e-10
-2.62670367332e-10
-4.82476355971e-10
-8.81915417189e-10
-1.59467417385e-09
-2.81384276415e-09
-4.65060555218e-09
-6.89381982801e-09
-9.09127633967e-09
-1.08570842652e-08
-1.20276136119e-08
-1.26268101197e-08
-1.2767772311e-08
-1.25735058569e-08
-1.21348852229e-08
-1.14961082707e-08
-1.06559821354e-08
-9.58058037797e-09
-8.23061666289e-09
-6.60961056794e-09
-4.82634433814e-09
-3.12537079562e-09
-1.79654006761e-09
-9.62982162011e-10
-5.09430454302e-10
-2.69371892004e-10
-1.43074058163e-10
-7.65481163832e-11
-4.13705404253e-11
-2.26719855021e-11
-1.26628228088e-11
-7.2456471638e-12
-4.25602225838e-12
-2.5491055273e-12
-1.52577203564e-12
-8.86679172657e-13
-4.98116851772e-13
-2.34795502078e-13
0
0
0
0
0
0
0
0
0
0
1.5326829792e-14
-1.37717622912e-14
-1.23542703882e-13
-3.68674233209e-13
-8.48997165213e-13
-1.74792844651e-12
-3.40283496643e-12
-6.43244562903e-12
-1.19678738215e-11
-2.20698099453e-11
-4.04772865429e-11
-7.39385376606e-11
-1.34542513339e-10
-2.43622881545e-10
-4.3807446636e-10
-7.79140525476e-10
-1.36012871237e-09
-2.29540554652e-09
-3.63143299921e-09
-5.22570318141e-09
-6.79437799147e-09
-8.08322565003e-09
-8.96868525362e-09
-9.44966849499e-09
-9.59152647486e-09
-9.47387080069e-09
-9.15926940487e-09
-8.6805565322e-09
-8.04068551991e-09
-7.2222172053e-09
-6.20756822634e-09
-5.0114064867e-09
-3.71722050692e-09
-2.4877072816e-09
-1.50450361387e-09
-8.50106402619e-10
-4.67491611582e-10
-2.54353717037e-10
-1.37984398581e-10
-7.49852321897e-11
-4.09854561125e-11
-2.26373448836e-11
-1.27077536639e-11
-7.29404132432e-12
-4.29438001256e-12
-2.58005020747e-12
-1.55256301358e-12
-9.0911465913e-13
-5.15587745787e-13
-2.4599267346e-13
0
0
0
0
0
0
0
0
0
0
3.24435266291e-14
1.4032213011e-14
-8.80773847672e-14
-3.26395576709e-13
-7.98760985756e-13
-1.68490867408e-12
-3.31370775315e-12
-6.28356390908e-12
-1.16772062984e-11
-2.14412415939e-11
-3.90485283008e-11
-7.06342551893e-11
-1.26911462327e-10
-2.26070962385e-10
-3.9804825438e-10
-6.89296915259e-10
-1.16405419218e-09
-1.88955876472e-09
-2.88108212559e-09
-4.04007176277e-09
-5.1831695714e-09
-6.13973009491e-09
-6.81712617457e-09
-7.20319680425e-09
-7.33467462316e-09
-7.26304958257e-09
-7.03168150831e-09
-6.66532606216e-09
-6.16930574249e-09
-5.53648278818e-09
-4.7619463576e-09
-3.86454712877e-09
-2.90795059574e-09
-2.00201664508e-09
-1.26304241222e-09
-7.46882884779e-10
-4.26133821054e-10
-2.38465122008e-10
-1.32102011493e-10
-7.28822054366e-11
-4.02474692639e-11
-2.23641304061e-11
-1.25813253787e-11
-7.21238515893e-12
-4.23143750023e-12
-2.53357837056e-12
-1.52457530609e-12
-8.97506856115e-13
-5.11559857e-13
-2.45039300336e-13
0
0
0
0
0
0
0
0
0
0
4.20687888949e-14
2.99454476832e-14
-6.72077766629e-14
-3.00634596586e-13
-7.66628018786e-13
-1.64179179947e-12
-3.24771285397e-12
-6.16549099604e-12
-1.14369614248e-11
-2.09131186609e-11
-3.78459495905e-11
-6.78671769544e-11
-1.20561490609e-10
-2.11620657064e-10
-3.65641395419e-10
-6.1833480697e-10
-1.01459444183e-09
-1.59454642185e-09
-2.35891340426e-09
-3.23647481602e-09
-4.10286876773e-09
-4.83887026362e-09
-5.37361063657e-09
-5.69067562167e-09
-5.81019077536e-09
-5.76609590175e-09
-5.58925226303e-09
-5.29890526437e-09
-4.90156630701e-09
-4.39615494492e-09
-3.78472274239e-09
-3.08696031921e-09
-2.35235507428e-09
-1.65803297994e-09
-1.08204737469e-09
-6.63900936373e-10
-3.90970290395e-10
-2.24283158695e-10
-1.26565924245e-10
-7.07482253076e-11
-3.93971835722e-11
-2.19779915138e-11
-1.23578300287e-11
-7.04932266386e-12
-4.10022408846e-12
-2.4309110227e-12
-1.45323085162e-12
-8.5637489638e-13
-4.86795479191e-13
-2.30774063261e-13
0
0
0
0
0
0
0
0
0
0
3.75402986361e-14
2.51281574242e-14
-7.09013305338e-14
-3.02315082306e-13
-7.64629188597e-13
-1.63230210566e-12
-3.22174122632e-12
-6.10168192566e-12
-1.12847678568e-11
-2.05540308315e-11
-3.70055596915e-11
-6.59184751288e-11
-1.16073569214e-10
-2.01441959446e-10
-3.43045955553e-10
-5.6970268137e-10
-9.14690538347e-10
-1.40348453118e-09
-2.03035765705e-09
-2.73994432956e-09
-3.44062957119e-09
-4.04266228774e-09
-4.48880933098e-09
-4.76137633889e-09
-4.87146916089e-09
-4.84289185196e-09
-4.69903852246e-09
-4.45572963752e-09
-4.11999191283e-09
-3.69402350111e-09
-3.18341144999e-09
-2.60748645167e-09
-2.00676440225e-09
-1.43954325935e-09
-9.62792686478e-10
-6.06714127031e-10
-3.65805694146e-10
-2.13812680409e-10
-1.22356918993e-10
-6.90699275848e-11
-3.86975940301e-11
-2.16419120232e-11
-1.21533653264e-11
-6.89549635734e-12
-3.97341586176e-12
-2.32817699236e-12
-1.37737043858e-12
-8.07784612182e-13
-4.54298973575e-13
-2.10063574673e-13
0
0
0
0
0
0
0
0
0
0
2.34571774784e-14
6.77250918778e-15
-9.04256692206e-14
-3.21839892731e-13
-7.82928562314e-13
-1.64715395141e-12
-3.22831222564e-12
-6.08882500386e-12
-1.12263606999e-11
-2.03890575282e-11
-3.65929369604e-11
-6.49351025385e-11
-1.1377998355e-10
-1.96223744848e-10
-3.31505473913e-10
-5.45093942926e-10
-8.64854712905e-10
-1.30986438132e-09
-1.87198211056e-09
-2.50311871067e-09
-3.12627437538e-09
-3.66510348153e-09
-4.06890475462e-09
-4.31974443086e-09
-4.42478496504e-09
-4.40320778913e-09
-4.27492383167e-09
-4.05411228583e-09
-3.74797380209e-09
-3.36012291293e-09
-2.89760195699e-09
-2.37932524591e-09
-1.84148372284e-09
-1.3338018194e-09
-9.03897874493e-10
-5.77772987671e-10
-3.52806850743e-10
-2.08322921936e-10
-1.2012999604e-10
-6.81810987483e-11
-3.83320626718e-11
-2.14721893592e-11
-1.20543249806e-11
-6.82263693485e-12
-3.91323353637e-12
-2.2785315766e-12
-1.33946818156e-12
-7.81882001633e-13
-4.36142444654e-13
-1.98144750111e-13
0
0
0
0
0
0
0
0
0
)
;

boundaryField
{
    inlet
    {
        type            calculated;
        value           uniform 0;
    }
    outlet
    {
        type            calculated;
        value           uniform 0;
    }
    bottomWall
    {
        type            calculated;
        value           uniform 0;
    }
    topWall
    {
        type            calculated;
        value           uniform 0;
    }
    frontAndBack
    {
        type            empty;
    }
}


// ************************************************************************* //
