/*--------------------------------*- C++ -*----------------------------------*\
| =========                 |                                                 |
| \\      /  F ield         | OpenFOAM: The Open Source CFD Toolbox           |
|  \\    /   O peration     | Version:  2512                                  |
|   \\  /    A nd           | Website:  www.openfoam.com                      |
|    \\/     M anipulation  |                                                 |
\*---------------------------------------------------------------------------*/
FoamFile
{
    version     2.0;
    format      ascii;
    arch        "LSB;label=32;scalar=64";
    class       volScalarField;
    location    "1";
    object      topOSensas1;
}
// * * * * * * * * * * * * * * * * * * * * * * * * * * * * * * * * * * * * * //

dimensions      [0 0 0 0 0 0 0];

internalField   nonuniform List<scalar> 
1440
(
0
-1.19918931281e-13
-2.04893133925e-13
-2.93781067389e-13
-4.2029416389e-13
-6.37982947724e-13
-1.0265702728e-12
-1.71304919459e-12
-2.9018103719e-12
-4.91748258219e-12
-8.26050471127e-12
-1.36673542337e-11
-2.21472515271e-11
-3.492259333e-11
-5.30963819808e-11
-7.6880908007e-11
-1.04240956672e-10
-1.292863762e-10
-1.41896374746e-10
-1.30764668108e-10
-8.82401012583e-11
-1.31684315798e-11
8.93738386234e-11
2.10010104044e-10
3.37360678412e-10
4.6000905358e-10
5.67754212998e-10
6.52061523458e-10
7.05959582348e-10
7.23885959946e-10
7.02094230187e-10
6.40100820123e-10
5.43033181768e-10
4.23510073243e-10
3.00486832983e-10
1.93293083754e-10
1.13523285885e-10
6.17159495424e-11
3.14392474884e-11
1.5139498318e-11
6.94083224211e-12
3.06465915013e-12
1.34356647862e-12
6.29668854534e-13
3.52681391111e-13
2.46037211416e-13
1.94290745688e-13
1.54147405328e-13
1.15366446282e-13
7.98600755986e-14
4.37397273337e-14
0
0
0
0
0
0
0
0
0
0
-1.22066952562e-13
-2.02837171672e-13
-2.91704602984e-13
-4.20046388814e-13
-6.41617284039e-13
-1.03784175157e-12
-1.73996096694e-12
-2.96088998605e-12
-5.04191485255e-12
-8.51546407472e-12
-1.41780669869e-11
-2.31488017641e-11
-3.68482350353e-11
-5.66756420241e-11
-8.32027614673e-11
-1.14606584748e-10
-1.44541369449e-10
-1.61179868245e-10
-1.50946076323e-10
-1.04757799069e-10
-2.14148092005e-11
9.30508440185e-11
2.27810711629e-10
3.69927207271e-10
5.06600640014e-10
6.26561138761e-10
7.20500155211e-10
7.8083205909e-10
8.01372492491e-10
7.77663012165e-10
7.08591404317e-10
5.99299452569e-10
4.63877715884e-10
3.2454339395e-10
2.04454162045e-10
1.17110488278e-10
6.20767954784e-11
3.08622631815e-11
1.4510185196e-11
6.49166384897e-12
2.79672397074e-12
1.20334224635e-12
5.66862222967e-13
3.32218870358e-13
2.46136009879e-13
2.02152405785e-13
1.62646163193e-13
1.21411499414e-13
8.45766963316e-14
4.74702745701e-14
0
0
0
0
0
0
0
0
0
0
-1.08164870696e-13
-1.86395527832e-13
-2.77788163835e-13
-4.12308217059e-13
-6.44016981569e-13
-1.05791183457e-12
-1.79357384992e-12
-3.08079322276e-12
-5.29407988034e-12
-9.03015233208e-12
-1.52070834779e-11
-2.51670928354e-11
-4.07405977567e-11
-6.39562783402e-11
-9.61946392077e-11
-1.36215774407e-10
-1.76883881267e-10
-2.02655069691e-10
-1.9484035862e-10
-1.41191936105e-10
-4.04803140214e-11
9.91479978002e-11
2.63727920742e-10
4.36986605317e-10
6.03190871773e-10
7.48837497969e-10
8.63034001526e-10
9.36956595211e-10
9.63149014614e-10
9.35635042441e-10
8.5185507668e-10
7.16783343326e-10
5.47505540661e-10
3.73346353843e-10
2.26045029819e-10
1.23276239902e-10
6.21006010993e-11
2.93222856177e-11
1.30500770629e-11
5.48212639775e-12
2.19070724389e-12
8.71785513828e-13
4.00247367618e-13
2.57114357653e-13
2.17991581727e-13
1.95243945848e-13
1.62685099954e-13
1.21497722971e-13
8.53311274896e-14
4.87917674617e-14
0
0
0
0
0
0
0
0
0
0
-9.12171764071e-14
-1.68245070211e-13
-2.64622416427e-13
-4.09527986396e-13
-6.57744693126e-13
-1.09951783559e-12
-1.88655306768e-12
-3.27351673739e-12
-5.68442072783e-12
-9.81286493812e-12
-1.67626912284e-11
-2.82228846233e-11
-4.66601158898e-11
-7.51382751527e-11
-1.16481896808e-10
-1.70768534338e-10
-2.30110456824e-10
-2.72635329829e-10
-2.70334681393e-10
-2.05326713008e-10
-7.65028180255e-11
1.0427692716e-10
3.17717972566e-10
5.41950531931e-10
7.56389997604e-10
9.43927543274e-10
1.0912004762e-09
1.18750501184e-09
1.22340674451e-09
1.19039905706e-09
1.08325097326e-09
9.06120385751e-10
6.80643621755e-10
4.48364009518e-10
2.56501052522e-10
1.29997903956e-10
6.05042019979e-11
2.61771057119e-11
1.04669617523e-11
3.77956965312e-12
1.1803017109e-12
3.09204999997e-13
1.01315786683e-13
1.04576948394e-13
1.42914338738e-13
1.58811311073e-13
1.43836199393e-13
1.10035770713e-13
7.86040022826e-14
4.55252844456e-14
0
0
0
0
0
0
0
0
0
0
-7.81180096431e-14
-1.55643626729e-13
-2.5894428997e-13
-4.17532519333e-13
-6.87700174025e-13
-1.16649752704e-12
-2.02113535256e-12
-3.53846804764e-12
-6.2073304813e-12
-1.08499618904e-11
-1.88213854562e-11
-3.22899162474e-11
-5.46073089607e-11
-9.03756157264e-11
-1.44779019678e-10
-2.20592208417e-10
-3.10163655619e-10
-3.82006984355e-10
-3.91967477413e-10
-3.12479889996e-10
-1.42802354776e-10
9.91962083789e-11
3.85818529702e-10
6.86462050468e-10
9.73109624173e-10
1.22330651697e-09
1.42020631912e-09
1.55057147148e-09
1.60222509212e-09
1.56281437427e-09
1.42251212539e-09
1.18312542311e-09
8.72261089304e-10
5.50861359238e-10
2.92463085565e-10
1.3380391844e-10
5.53723810713e-11
2.05744072381e-11
6.4228919822e-12
1.26064198026e-12
-2.76384073734e-13
-4.97763243452e-13
-3.34106006826e-13
-1.26811936355e-13
2.04083776576e-14
9.29582779253e-14
1.06859827161e-13
8.82143348909e-14
6.57923936008e-14
3.90460886752e-14
0
0
0
0
0
0
0
0
0
0
-7.03018472825e-14
-1.49590731052e-13
-2.60814652548e-13
-4.34932119401e-13
-7.30838480777e-13
-1.25379420147e-12
-2.18937120369e-12
-3.86283870978e-12
-6.84131438072e-12
-1.21046802561e-11
-2.13217442378e-11
-3.7274308421e-11
-6.44723623488e-11
-1.09662018463e-10
-1.81654125994e-10
-2.88297987305e-10
-4.25327052286e-10
-5.4912301103e-10
-5.8830878899e-10
-4.97513331309e-10
-2.75456219881e-10
5.11051553904e-11
4.41521612984e-10
8.51649575773e-10
1.24215947815e-09
1.58278308262e-09
1.85191970481e-09
2.03314361543e-09
2.11078279157e-09
2.06702730683e-09
1.88460016702e-09
1.55993737771e-09
1.12737715661e-09
6.77147313759e-10
3.2605329718e-10
1.28923436211e-10
4.40576000827e-11
1.14752546144e-11
5.49770985805e-13
-2.19039356828e-12
-2.20775815627e-12
-1.5502972045e-12
-9.00210485528e-13
-4.30386563727e-13
-1.43541031099e-13
2.70560879551e-15
5.56711670939e-14
5.85869876041e-14
4.88679616698e-14
3.08266844051e-14
0
0
0
0
0
0
0
0
0
0
-6.6755852617e-14
-1.48561812952e-13
-2.67841108003e-13
-4.57924333592e-13
-7.81516744583e-13
-1.3532592251e-12
-2.37929235203e-12
-4.22807609351e-12
-7.55566984012e-12
-1.35236111752e-11
-2.41691884551e-11
-4.30129848577e-11
-7.60059146218e-11
-1.32720833121e-10
-2.2721475464e-10
-3.76088097762e-10
-5.85833823159e-10
-8.09668867692e-10
-9.38106008748e-10
-8.8448232749e-10
-6.32188349546e-10
-2.15455676417e-10
3.04945641006e-10
8.61788836995e-10
1.39654627635e-09
1.86617099956e-09
2.24188883197e-09
2.50325471403e-09
2.63075540329e-09
2.60005125812e-09
2.38358376724e-09
1.96823833594e-09
1.3940176081e-09
7.9015479991e-10
3.35476416725e-10
1.06372334289e-10
2.32797881974e-11
-2.23155921923e-12
-7.49888134861e-12
-6.6668439378e-12
-4.63012185227e-12
-2.844791463e-12
-1.59030925324e-12
-8.004197986e-13
-3.44613039647e-13
-1.08767349612e-13
-7.52635115976e-15
2.24348101165e-14
2.86993055087e-14
2.14195481045e-14
0
0
0
0
0
0
0
0
0
0
-6.59084875339e-14
-1.50498513671e-13
-2.77311958927e-13
-4.82744991614e-13
-8.34309213608e-13
-1.45687530386e-12
-2.57856410851e-12
-4.61401344921e-12
-8.31518433031e-12
-1.50419948027e-11
-2.7241318741e-11
-4.92754303276e-11
-8.87965983536e-11
-1.58892543326e-10
-2.80701740957e-10
-4.84451609276e-10
-8.00058798622e-10
-1.20751822309e-09
-1.57363539716e-09
-1.72259310411e-09
-1.56388499081e-09
-1.11756187224e-09
-4.73748392064e-10
2.57714473021e-10
9.81901279123e-10
1.63188463952e-09
2.16623437929e-09
2.55903756322e-09
2.78792824678e-09
2.82381269594e-09
2.6293817788e-09
2.17934250488e-09
1.51463802424e-09
8.02004252524e-10
2.84830330936e-10
5.499546395e-11
-1.02885155012e-11
-2.1482514564e-11
-1.79535557346e-11
-1.22055306046e-11
-7.5362116085e-12
-4.36961663172e-12
-2.39648465409e-12
-1.23270248749e-12
-5.80900277392e-13
-2.40696733022e-13
-8.24615711303e-14
-2.01763899017e-14
5.27909552771e-15
1.0778231672e-14
0
0
0
0
0
0
0
0
0
0
-6.63625419417e-14
-1.5356004277e-13
-2.86981203805e-13
-5.06458061733e-13
-8.8491280889e-13
-1.55789128638e-12
-2.7759679879e-12
-5.00087144168e-12
-9.08295037206e-12
-1.65878080459e-11
-3.03936166106e-11
-5.57690780906e-11
-1.02261696796e-10
-1.87050494784e-10
-3.40094935631e-10
-6.10538637296e-10
-1.06798139125e-09
-1.76880194583e-09
-2.6168989808e-09
-3.29151378307e-09
-3.50552701783e-09
-3.20259854289e-09
-2.50766338517e-09
-1.60452577041e-09
-6.54449849693e-10
2.31753681641e-10
9.8981750471e-10
1.58585793138e-09
1.99796109216e-09
2.19975966149e-09
2.1529637994e-09
1.82410485084e-09
1.24535868276e-09
5.92124841831e-10
1.34430106215e-10
-3.5103456326e-11
-5.8940168587e-11
-4.66938670758e-11
-3.08153770867e-11
-1.87478216969e-11
-1.08805283806e-11
-6.09859057956e-12
-3.30594455177e-12
-1.72206474685e-12
-8.51037899653e-13
-3.93292045833e-13
-1.69741251541e-13
-6.97509719698e-14
-2.17981085711e-14
-1.38769491243e-15
0
0
0
0
0
0
0
0
0
0
-6.70887441854e-14
-1.56357105101e-13
-2.95228475619e-13
-5.27017854758e-13
-9.30229131611e-13
-1.65103905777e-12
-2.96191965302e-12
-5.37034603791e-12
-9.82253487534e-12
-1.80860158269e-11
-3.3467553024e-11
-6.21534271165e-11
-1.15665629319e-10
-2.15596280074e-10
-4.01926668316e-10
-7.46999457e-10
-1.37518301956e-09
-2.4719221136e-09
-4.0701695886e-09
-5.67274811493e-09
-6.6414388746e-09
-6.74516844818e-09
-6.13690496706e-09
-5.10808700168e-09
-3.92231359766e-09
-2.75957048905e-09
-1.7205455456e-09
-8.50826333418e-10
-1.67109399423e-10
3.19526373797e-10
5.8764754443e-10
6.09338608466e-10
3.96364742635e-10
7.5060915729e-11
-1.38444745765e-10
-1.67643886251e-10
-1.2267964405e-10
-7.74230465371e-11
-4.57603178057e-11
-2.61106152818e-11
-1.45690575737e-11
-7.98608409259e-12
-4.29782489928e-12
-2.25990675301e-12
-1.15224845227e-12
-5.66270368375e-13
-2.69870693804e-13
-1.26814638248e-13
-5.29973411045e-14
-1.5415589804e-14
0
0
0
0
0
0
0
0
0
0
-6.74376639524e-14
-1.57995662735e-13
-3.01034021666e-13
-5.43151413108e-13
-9.68226186705e-13
-1.73248341773e-12
-3.12869292698e-12
-5.70644980935e-12
-1.05001539087e-11
-1.94636661357e-11
-3.63021591932e-11
-6.80658967719e-11
-1.28176270888e-10
-2.42575610928e-10
-4.61486048603e-10
-8.82157201319e-10
-1.69178222853e-09
-3.23749874485e-09
-5.75807032219e-09
-8.59182075405e-09
-1.06423555002e-08
-1.14109572011e-08
-1.10549742915e-08
-9.9890950659e-09
-8.60326550303e-09
-7.16602674698e-09
-5.82632461158e-09
-4.64576887965e-09
-3.63247432475e-09
-2.77035763912e-09
-2.0443495705e-09
-1.45796584169e-09
-1.02717506013e-09
-7.38645071121e-10
-5.23389653045e-10
-3.36568817081e-10
-1.98397008613e-10
-1.12183317896e-10
-6.21014925483e-11
-3.39803458345e-11
-1.84586673548e-11
-9.96654257112e-12
-5.34220849847e-12
-2.83293926422e-12
-1.47908455395e-12
-7.57804825414e-13
-3.82518208079e-13
-1.91490726997e-13
-8.85936256331e-14
-3.15602829829e-14
0
0
0
0
0
0
0
0
0
0
-6.70760592607e-14
-1.57994730128e-13
-3.03853557693e-13
-5.54191573299e-13
-9.97742577517e-13
-1.79967662981e-12
-3.27050754856e-12
-5.99620857691e-12
-1.10868235166e-11
-2.06555215888e-11
-3.87481959695e-11
-7.31575387349e-11
-1.38956125451e-10
-2.65915823733e-10
-5.13457058398e-10
-1.00181226133e-09
-1.97806229882e-09
-3.94897225236e-09
-7.38254252828e-09
-1.15052054086e-08
-1.47686728376e-08
-1.63661971832e-08
-1.64201215673e-08
-1.54477375971e-08
-1.3959661783e-08
-1.23148800013e-08
-1.07147552372e-08
-9.24014445338e-09
-7.89060757838e-09
-6.61772394912e-09
-5.35864746395e-09
-4.07955695947e-09
-2.82688765234e-09
-1.74413775383e-09
-9.77459794539e-10
-5.25969140827e-10
-2.79933074259e-10
-1.48519431426e-10
-7.883609108e-11
-4.19370876383e-11
-2.23685502195e-11
-1.19596604396e-11
-6.40228893509e-12
-3.42389722403e-12
-1.82345671398e-12
-9.64275519343e-13
-5.06224430193e-13
-2.63280596377e-13
-1.28525288044e-13
-4.99154767817e-14
0
0
0
0
0
0
0
0
0
0
-6.58746052883e-14
-1.56134249073e-13
-3.03442213555e-13
-5.5985151776e-13
-1.01820354151e-12
-1.85109354768e-12
-3.38342799961e-12
-6.23007384203e-12
-1.15601316936e-11
-2.16093361742e-11
-4.06826150873e-11
-7.71323624028e-11
-1.47271623621e-10
-2.83738145826e-10
-5.52845004857e-10
-1.09213326299e-09
-2.19414480165e-09
-4.48836209979e-09
-8.63524523312e-09
-1.38268390602e-08
-1.81913320272e-08
-2.06464663121e-08
-2.12334845455e-08
-2.05141528146e-08
-1.90797510283e-08
-1.73596627799e-08
-1.56008897063e-08
-1.39036971097e-08
-1.22620544916e-08
-1.05985826189e-08
-8.80518222332e-09
-6.81240874833e-09
-4.70090823722e-09
-2.78257296055e-09
-1.43717011893e-09
-7.13141523081e-10
-3.59045931364e-10
-1.83351250098e-10
-9.4774709099e-11
-4.95052552509e-11
-2.61010766717e-11
-1.38795436853e-11
-7.43873063216e-12
-4.01376135817e-12
-2.17578549264e-12
-1.18082386877e-12
-6.38611241642e-13
-3.41094226753e-13
-1.72382847403e-13
-7.04071201469e-14
0
0
0
0
0
0
0
0
0
0
-6.37468073276e-14
-1.522395281e-13
-2.99612843083e-13
-5.59954484509e-13
-1.029315184e-12
-1.88590628049e-12
-3.46512060208e-12
-6.40204097545e-12
-1.19054378772e-11
-2.22900413211e-11
-4.20209558362e-11
-7.97828939102e-11
-1.52597372873e-10
-2.94669696792e-10
-5.75934389949e-10
-1.14266931362e-09
-2.30944880453e-09
-4.76299864507e-09
-9.26029218209e-09
-1.5031993433e-08
-2.0109387631e-08
-2.32549931249e-08
-2.4402497103e-08
-2.40782633845e-08
-2.28840014907e-08
-2.12754744961e-08
-1.95236785254e-08
-1.7741599826e-08
-1.59205353636e-08
-1.39638864377e-08
-1.17329954784e-08
-9.13791694951e-09
-6.29745349715e-09
-3.66949557941e-09
-1.83045142611e-09
-8.73120015047e-10
-4.26966992316e-10
-2.13502293833e-10
-1.08723526049e-10
-5.6217733138e-11
-2.94648501111e-11
-1.5643171319e-11
-8.41285264081e-12
-4.58299891127e-12
-2.5255038088e-12
-1.40155490191e-12
-7.76448796572e-13
-4.23251945017e-13
-2.19397427896e-13
-9.27899098261e-14
0
0
0
0
0
0
0
0
0
0
-6.04286704015e-14
-1.45887144569e-13
-2.91904555705e-13
-5.54074366829e-13
-1.03067437637e-12
-1.90357993991e-12
-3.51450718485e-12
-6.50955443924e-12
-1.2116548848e-11
-2.26825997575e-11
-4.27263146051e-11
-8.10167618386e-11
-1.54695660244e-10
-2.98084401322e-10
-5.81035356123e-10
-1.14872709266e-09
-2.31051977862e-09
-4.73344705889e-09
-9.14910392595e-09
-1.48778820214e-08
-2.00978322366e-08
-2.358283133e-08
-2.51694862093e-08
-2.52819475071e-08
-2.44587832997e-08
-2.31288108481e-08
-2.1556473748e-08
-1.98552108515e-08
-1.80156518358e-08
-1.59361412887e-08
-1.34710589042e-08
-1.05327251806e-08
-7.27315622373e-09
-4.23191440898e-09
-2.09226871085e-09
-9.84197994032e-10
-4.76241923015e-10
-2.36306323582e-10
-1.19687001069e-10
-6.16852761727e-11
-3.22991086051e-11
-1.7179221175e-11
-9.2899451493e-12
-5.11289250261e-12
-2.86164357794e-12
-1.61982057887e-12
-9.15788063128e-13
-5.07522558337e-13
-2.68458223289e-13
-1.16667059506e-13
0
0
0
0
0
0
0
0
0
0
-5.54150097527e-14
-1.36336128147e-13
-2.79521252739e-13
-5.41471585362e-13
-1.02168195876e-12
-1.90374867453e-12
-3.5316178837e-12
-6.55340992292e-12
-1.21958956585e-11
-2.27930920093e-11
-4.28131040186e-11
-8.08681336476e-11
-1.53651158063e-10
-2.94207518025e-10
-5.6880092664e-10
-1.11235031279e-09
-2.20400191879e-09
-4.42048036947e-09
-8.35570435583e-09
-1.34455853129e-08
-1.82040990042e-08
-2.15740237294e-08
-2.3338913297e-08
-2.37904918331e-08
-2.33527694907e-08
-2.23832275069e-08
-2.11109653309e-08
-1.96370267232e-08
-1.79531823503e-08
-1.59678683218e-08
-1.35528367603e-08
-1.0641663375e-08
-7.39941392115e-09
-4.35542256056e-09
-2.18087294817e-09
-1.03326900295e-09
-5.02399317619e-10
-2.50133164789e-10
-1.27037238827e-10
-6.56515536756e-11
-3.44909266473e-11
-1.84324701455e-11
-1.00393747851e-11
-5.5843464726e-12
-3.1714450148e-12
-1.82706248296e-12
-1.05119460649e-12
-5.9072477265e-13
-3.17880704974e-13
-1.41359319376e-13
0
0
0
0
0
0
0
0
0
0
-4.8031839348e-14
-1.22667186487e-13
-2.61515961889e-13
-5.21301902072e-13
-1.00176007009e-12
-1.88642245158e-12
-3.51776075324e-12
-6.5378492991e-12
-1.21544866594e-11
-2.26483650309e-11
-4.23458978325e-11
-7.94939667176e-11
-1.49857674956e-10
-2.84067350698e-10
-5.42052424e-10
-1.04172341612e-09
-2.01496423565e-09
-3.90393351717e-09
-7.10736245221e-09
-1.11867674142e-08
-1.50675574274e-08
-1.79458850117e-08
-1.96028411513e-08
-2.02083205382e-08
-2.00591000638e-08
-1.94225179427e-08
-1.84772410512e-08
-1.73046942545e-08
-1.58997810221e-08
-1.41917999026e-08
-1.2085314769e-08
-9.54283330139e-09
-6.71754643609e-09
-4.04998769586e-09
-2.09586448418e-09
-1.01990986113e-09
-5.05016488581e-10
-2.54705017899e-10
-1.30616663265e-10
-6.80282826456e-11
-3.59874415725e-11
-1.9367873364e-11
-1.06356618668e-11
-5.97783117011e-12
-3.43989069762e-12
-2.01226407115e-12
-1.17530620077e-12
-6.68460975539e-13
-3.6521991087e-13
-1.65780227247e-13
0
0
0
0
0
0
0
0
0
0
-3.76591061896e-14
-1.04148769149e-13
-2.37238201317e-13
-4.9311611622e-13
-9.70885443019e-13
-1.85252082769e-12
-3.47598959451e-12
-6.47081728718e-12
-1.20115939791e-11
-2.22942117334e-11
-4.14334673769e-11
-7.71558429049e-11
-1.43960785276e-10
-2.69309574228e-10
-5.05162943682e-10
-9.49076153046e-10
-1.77973001276e-09
-3.29889826243e-09
-5.72696424047e-09
-8.74777384898e-09
-1.16546504514e-08
-1.3890035762e-08
-1.5264543351e-08
-1.58606358267e-08
-1.58680370155e-08
-1.54715060269e-08
-1.48005696455e-08
-1.39170214082e-08
-1.28201545703e-08
-1.14630268589e-08
-9.78548590167e-09
-7.77616752435e-09
-5.56228786864e-09
-3.4658611425e-09
-1.88290593043e-09
-9.56665927253e-10
-4.87697728017e-10
-2.51094866025e-10
-1.30745509147e-10
-6.89017660869e-11
-3.68001012447e-11
-1.99731889912e-11
-1.10601086774e-11
-6.27435839951e-12
-3.65020316051e-12
-2.16210094134e-12
-1.27879683375e-12
-7.35048585405e-13
-4.07150320331e-13
-1.8830615369e-13
0
0
0
0
0
0
0
0
0
0
-2.41178474119e-14
-8.08338398195e-14
-2.07035311884e-13
-4.57626842428e-13
-9.30394064125e-13
-1.80466932593e-12
-3.4117849851e-12
-6.36427289858e-12
-1.17940750924e-11
-2.17921162491e-11
-4.021866475e-11
-7.41905503982e-11
-1.36769704763e-10
-2.51926088561e-10
-4.63190108387e-10
-8.47753415578e-10
-1.53521373855e-09
-2.71303776166e-09
-4.48403964676e-09
-6.6332824369e-09
-8.71741626265e-09
-1.03665150031e-08
-1.14303020101e-08
-1.19395463627e-08
-1.20089690497e-08
-1.1760992941e-08
-1.12862914841e-08
-1.06309080998e-08
-9.79830372569e-09
-8.76168296598e-09
-7.48922567929e-09
-5.98731924771e-09
-4.35563666898e-09
-2.81269132446e-09
-1.61399571145e-09
-8.6426995972e-10
-4.56853051057e-10
-2.41403196718e-10
-1.28135065249e-10
-6.85107198642e-11
-3.70005942397e-11
-2.02599344181e-11
-1.13029243137e-11
-6.4575586787e-12
-3.78545517019e-12
-2.26195916642e-12
-1.35088279482e-12
-7.83743229903e-13
-4.39456795559e-13
-2.06643699176e-13
0
0
0
0
0
0
0
0
0
0
-8.2611125841e-15
-5.44037739586e-14
-1.7321351847e-13
-4.17745900425e-13
-8.84061732472e-13
-1.74825759691e-12
-3.3339414497e-12
-6.23456313792e-12
-1.15354169081e-11
-2.12149537285e-11
-3.88656243525e-11
-7.09748569658e-11
-1.29158366852e-10
-2.33971957387e-10
-4.21037467711e-10
-7.49589370888e-10
-1.30999110418e-09
-2.21279381555e-09
-3.4994458754e-09
-5.02550173705e-09
-6.51261780322e-09
-7.71668288216e-09
-8.52325897478e-09
-8.93658391984e-09
-9.02394155884e-09
-8.8652342082e-09
-8.52339643529e-09
-8.03287360196e-09
-7.39996414658e-09
-6.61192890307e-09
-5.65556921856e-09
-4.54627199803e-09
-3.36020760336e-09
-2.24268988084e-09
-1.35384531509e-09
-7.64071867293e-10
-4.1980919474e-10
-2.28244147681e-10
-1.23740862799e-10
-6.72052478152e-11
-3.67120377464e-11
-2.02645813764e-11
-1.13672835963e-11
-6.51812729311e-12
-3.83243268486e-12
-2.2987767497e-12
-1.38103792638e-12
-8.07620923879e-13
-4.57354635574e-13
-2.17805455944e-13
0
0
0
0
0
0
0
0
0
0
7.21016367644e-15
-2.92171679377e-14
-1.41190147541e-13
-3.79811424828e-13
-8.39365783485e-13
-1.69264862459e-12
-3.25553991408e-12
-6.10275437761e-12
-1.12744937181e-11
-2.06419609288e-11
-3.7545635673e-11
-6.78894196751e-11
-1.21973529386e-10
-2.17333536038e-10
-3.82873237384e-10
-6.63492189277e-10
-1.12126837995e-09
-1.82077535607e-09
-2.77426716478e-09
-3.88234012255e-09
-4.96526098483e-09
-5.85898769129e-09
-6.47719746749e-09
-6.81182071637e-09
-6.90147821023e-09
-6.79835510774e-09
-6.54643906134e-09
-6.17184862065e-09
-5.68230507876e-09
-5.07373980137e-09
-4.34371773908e-09
-3.51072740498e-09
-2.63269506583e-09
-1.80771082381e-09
-1.1382937096e-09
-6.72218103871e-10
-3.83153722407e-10
-2.14244975978e-10
-1.18608458667e-10
-6.54031286424e-11
-3.61020155438e-11
-2.00538800395e-11
-1.12783576519e-11
-6.46331669607e-12
-3.79015796588e-12
-2.26777199433e-12
-1.36343803391e-12
-8.01955504663e-13
-4.56705116853e-13
-2.18560682574e-13
0
0
0
0
0
0
0
0
0
0
1.72117870621e-14
-1.2791847262e-14
-1.19934028157e-13
-3.54013479584e-13
-8.07869776437e-13
-1.6514337598e-12
-3.19387841659e-12
-5.99380982505e-12
-1.10530144181e-11
-2.01521915894e-11
-3.64214377423e-11
-6.52829700576e-11
-1.15957653026e-10
-2.03574278411e-10
-3.51873175167e-10
-5.95328063105e-10
-9.77191890304e-10
-1.53567304557e-09
-2.26963626545e-09
-3.10758475613e-09
-3.9277092799e-09
-4.61531003073e-09
-5.10403920487e-09
-5.38068476387e-09
-5.46711406776e-09
-5.39813332005e-09
-5.20533997111e-09
-4.90913880778e-09
-4.51780338244e-09
-4.03228806314e-09
-3.45599497297e-09
-2.80776044505e-09
-2.13253415847e-09
-1.49916387072e-09
-9.76449643167e-10
-5.98241400488e-10
-3.51916527914e-10
-2.01707202427e-10
-1.13750413015e-10
-6.35534898693e-11
-3.53799862284e-11
-1.97351285106e-11
-1.10981477508e-11
-6.33281799188e-12
-3.68501520301e-12
-2.18548398895e-12
-1.30662275523e-12
-7.69825530928e-13
-4.3762061553e-13
-2.07574801309e-13
0
0
0
0
0
0
0
0
0
0
1.5849831584e-14
-1.31094592047e-14
-1.18569598253e-13
-3.50454650942e-13
-8.00794422915e-13
-1.63751017618e-12
-3.16494599774e-12
-5.93009738102e-12
-1.09071348353e-11
-1.9812033216e-11
-3.56255717727e-11
-6.34310431338e-11
-1.11681284837e-10
-1.93845445184e-10
-3.30202385799e-10
-5.48530142964e-10
-8.80782444753e-10
-1.35096942901e-09
-1.95213932624e-09
-2.62893234171e-09
-3.29169292211e-09
-3.8540367014e-09
-4.26221035695e-09
-4.50115745768e-09
-4.58358857793e-09
-4.53423585085e-09
-4.37726688517e-09
-4.12952221096e-09
-3.79940389179e-09
-3.39054401024e-09
-2.90926650018e-09
-2.37385095211e-09
-1.82105956941e-09
-1.30292652312e-09
-8.69661684786e-10
-5.47179846029e-10
-3.29517607953e-10
-1.92424025824e-10
-1.10039160572e-10
-6.2085735046e-11
-3.47753620861e-11
-1.94486157212e-11
-1.09254182851e-11
-6.2031002726e-12
-3.57796831707e-12
-2.09876695159e-12
-1.24280789355e-12
-7.29343281868e-13
-4.10630750466e-13
-1.90296462231e-13
0
0
0
0
0
0
0
0
0
0
5.66068498438e-15
-2.60178700218e-14
-1.31972947141e-13
-3.63532354608e-13
-8.12563694381e-13
-1.6460258329e-12
-3.16580145897e-12
-5.91291311984e-12
-1.08472821367e-11
-1.96514944778e-11
-3.52293732826e-11
-6.24890877971e-11
-1.09485536491e-10
-1.88843402898e-10
-3.19113437044e-10
-5.24820503893e-10
-8.3265527889e-10
-1.26044307869e-09
-1.79909664318e-09
-2.40064662192e-09
-2.98978733897e-09
-3.49302170644e-09
-3.86264971097e-09
-4.08310314075e-09
-4.16307084547e-09
-4.12267904296e-09
-3.9826214335e-09
-3.75802741612e-09
-3.45729162918e-09
-3.08518905115e-09
-2.64923086778e-09
-2.16721619763e-09
-1.67196695936e-09
-1.20786239053e-09
-8.16866166484e-10
-5.21305380637e-10
-3.17927840291e-10
-1.87544277887e-10
-1.08066827911e-10
-6.13018098698e-11
-3.44542552761e-11
-1.92997418309e-11
-1.08382977497e-11
-6.13873635939e-12
-3.52469822403e-12
-2.054864569e-12
-1.20941638559e-12
-7.0668566259e-13
-3.94761579893e-13
-1.79798013457e-13
0
0
0
0
0
0
0
0
0
)
;

boundaryField
{
    inlet
    {
        type            calculated;
        value           uniform 0;
    }
    outlet
    {
        type            calculated;
        value           uniform 0;
    }
    bottomWall
    {
        type            calculated;
        value           uniform 0;
    }
    topWall
    {
        type            calculated;
        value           uniform 0;
    }
    frontAndBack
    {
        type            empty;
    }
}


// ************************************************************************* //
