/*--------------------------------*- C++ -*----------------------------------*\
| =========                 |                                                 |
| \\      /  F ield         | OpenFOAM: The Open Source CFD Toolbox           |
|  \\    /   O peration     | Version:  2512                                  |
|   \\  /    A nd           | Website:  www.openfoam.com                      |
|    \\/     M anipulation  |                                                 |
\*---------------------------------------------------------------------------*/
FoamFile
{
    version     2.0;
    format      ascii;
    arch        "LSB;label=32;scalar=64";
    class       volScalarField;
    location    "1";
    object      topologySensas1;
}
// * * * * * * * * * * * * * * * * * * * * * * * * * * * * * * * * * * * * * //

dimensions      [0 5 -2 0 0 0 0];

internalField   nonuniform List<scalar> 
1440
(
0
-180.521518038
-212.630135436
-234.27950457
-176.993390315
-121.210305693
-73.8162143032
-27.5236902768
37.8933867423
111.013351638
-37.3133791865
-1341.89889303
-2743.27249141
-3283.66324892
-3324.00759131
-3109.41213867
-2797.40800814
-2483.30870718
-2256.11334026
-2145.30836306
-2092.41734537
-2044.55537414
-1983.84190736
-1906.35685535
-1862.55045451
-1872.94295759
-1950.41640241
-2103.31175756
-2337.12441386
-2653.81584209
-3049.73022541
-3511.61192435
-4013.0765752
-4507.07619637
-4913.54556785
-5143.62783864
-5210.67492489
-5165.42969699
-4982.00337992
-4612.83601207
-3972.77769709
-2929.38782998
-1298.86865427
1191.37136875
4856.82813307
9399.98331105
13179.3121338
16218.0382393
28761.4128179
42298.4922131
48849.3767589
53043.8199143
51744.2851559
46146.1922466
37454.7898273
26231.6041522
12896.4361378
-1793.86039466
-15860.9071438
0
0
-769.746442733
-550.09303401
-525.519165972
-418.970028626
-341.749734183
-297.293946559
-294.66397608
-340.498428089
-434.523695616
-475.316817542
-295.62095676
428.035990823
879.6018053
1119.11849649
1437.94626616
1867.49512904
2435.67832351
3088.2088809
3753.6677243
4423.24907881
5097.29765237
5779.03959956
6482.94511037
7255.10786162
8107.43338943
9049.82107584
10089.2358655
11230.0308211
12472.919625
13814.3320036
15241.6324946
16731.5604988
18277.5464529
19887.4344037
21609.528556
23411.7711506
25160.4565991
26738.3102173
28056.767377
29016.2059509
29519.2977758
29496.6312747
28968.1716071
28128.9843028
27119.4130648
25702.2390878
26312.6367129
37098.9775871
38238.4834656
27571.6497873
19792.9508812
9938.2655333
978.360436664
-5593.23275484
-9439.06625398
-10906.0991763
-10684.2756911
-9469.46313738
0
0
-697.027555631
-601.910417932
-612.24141229
-519.231281072
-430.460178767
-355.796838239
-310.522999259
-300.939791241
-342.632272199
-379.746174566
-390.235815526
2.85925955001
8.08061354527
5.88888124965
9.04761624135
15.9546624918
28.5472895923
35.9776854287
34.1798302196
31.0303675991
28.0796552254
25.5129655887
23.2723477696
21.238342782
19.4293669689
17.7789177917
16.2116685689
14.6432989349
12.9850576817
11.0718712459
8.54956660095
4.87393925903
-1.01749545651
-11.8250823462
-29.1673969949
-45.7851526308
-48.1997134434
-47.2216941585
-44.1749933184
-40.3930698576
-36.6747245793
-33.9357793588
-33.3330318166
-36.1289919248
-44.8807457005
-58.7393681305
-64.2137460967
12405.9164587
27671.558657
35796.5806694
37284.0399532
31260.8541221
22939.3655297
14697.2763906
6281.4289195
-2661.25417882
-10820.1809149
-16049.8835876
0
0
-549.759968256
-564.926918437
-610.527474717
-542.611982532
-449.068466497
-350.900695548
-267.304851692
-198.984789971
-166.395877368
-169.873797013
-158.15930986
32.7529348235
31.2223610813
31.3206856768
30.4857226535
33.6124461907
45.3624347011
44.1772241316
33.7915740661
26.8212741574
22.9412718742
20.4706901741
18.7564370134
17.4229332758
16.3348556753
15.390080322
14.5136287307
13.651267335
12.7656323765
11.8188864413
10.7415916208
9.35884218056
7.44826714837
3.86908462859
0.632772666426
-1.72664380823
-0.754253782212
-0.533557537435
-0.307315277778
-0.316786988056
-0.676024301749
-1.79390463685
-4.35631194158
-9.24179054113
-16.7912424299
-37.3651907838
40.0385414517
6136.69282627
2074.31076744
5325.84626706
14931.3403217
29417.6156308
39171.5766901
37870.1167112
26364.8863141
11253.6769689
-1381.47520471
-14088.4877096
0
0
-399.663119645
-494.068355696
-569.256050835
-539.029506551
-457.329029179
-351.090460817
-248.443874666
-152.771004235
-87.8979692801
-60.332065899
12.3257922179
31.3320052011
30.3755992789
28.5896410383
28.8419090523
36.2895437738
65.0776708687
63.690013091
38.7025539292
27.5008798002
21.7674365222
18.072009166
15.4811602084
13.5117244083
11.9454420498
10.6368572512
9.48425170498
8.41170140234
7.36041038611
6.26542839414
5.02563979862
3.40075647257
1.11052599927
-3.82747884347
-10.5022944829
-12.8275296794
-8.42965908694
-7.59463295127
-6.89007886145
-6.55081142611
-6.60686758625
-7.47669093067
-9.82093045862
-14.8460845864
-22.15730073
-48.3087278446
15.7308593265
3126.58399746
2252.96350415
2669.11046639
4293.15288367
7480.1646358
13435.0673439
22434.5481121
32022.9595293
37766.3080352
36493.5262209
16520.6467272
0
0
-280.445979485
-409.685268173
-499.738020187
-512.283081395
-458.604988492
-361.594847465
-253.930304033
-144.403537921
-63.9423584018
-26.9940230351
70.4466954162
25.1613778147
30.4328953364
28.1452031611
28.6675407435
37.488156367
79.2916307035
6.22221594925
5.75922782195
5.64421624579
5.80870652609
5.9475308929
6.04609841328
6.11134909519
6.15368469923
6.17973989443
6.19339756465
6.19620171217
6.18760530038
6.16526538748
6.12394486444
6.05596500736
5.95953174913
5.79859056464
6.10314522298
-13.2094183997
-4.90040344782
-4.52479064684
-3.75740691958
-3.56295186805
-3.87197244313
-5.14066155393
-8.09285647063
-14.3401632453
-23.8348128627
-58.9772480197
-6.21539416305
1409.64203875
2114.60206212
2648.46469099
3758.01270583
3023.50728042
2125.40931859
2163.39222138
4044.08093855
6466.82087898
6214.2771978
11511.1687151
0
0
-189.284954819
-312.021100774
-412.182313011
-460.796601813
-443.259447761
-371.227251252
-271.245475754
-159.079148856
-66.9235150211
-16.6505566625
87.5103894685
20.7260432294
30.0120690607
26.7958102703
26.5873945736
34.7340985991
56.7338415398
5.6473213391
5.99936117308
5.02962917749
4.66346787864
4.44314346617
4.2930398203
4.1818904747
4.09761732762
4.03277409678
3.98147844249
3.93839478158
3.89830166457
3.8558107644
3.8050942514
3.73994069108
3.66776546274
3.55657372574
3.98006238664
-6.73325381289
-3.50826804407
-2.9952654932
-2.16157276878
-1.92579645032
-2.23710537679
-3.54313512942
-6.54783677276
-12.884486933
-22.4555459832
-55.8102248278
-8.29509945357
143.774205521
1635.18187715
2984.53951484
5946.69150987
6105.32470421
4126.48155362
162.203372401
-5504.32857194
-13982.0139613
-28789.8300225
-49641.0009628
0
0
-112.541352538
-210.607219585
-309.418449151
-381.191200459
-399.478860839
-361.823678049
-282.85251665
-179.130345261
-81.557959056
-13.0089129845
94.7863830489
17.6896139636
29.3191872249
25.1175577687
23.8352629386
30.458248761
43.8461021054
4.0789471642
5.42949269002
4.67255886772
4.37013465793
4.18074451064
4.05921285124
3.97630558711
3.91897373207
3.87915770348
3.85123261012
3.8309495008
3.81510348099
3.80157686579
3.79019439931
3.78491056969
3.81154556651
3.88717600916
4.43156559103
-3.7321972947
-1.79717394358
-1.23880445907
-0.345457350614
-0.014226156838
-0.22255827153
-1.3791791505
-4.11945279963
-9.89327549263
-18.5525204684
-45.6875567385
-6.43230171723
-910.253483001
1013.87947385
3386.1180379
8383.05234311
11158.8758313
11647.7548526
9494.52616971
4706.0374173
-3383.50060593
-15632.7285229
-32082.9877798
0
0
-39.2939818166
-103.493781155
-189.27522307
-269.70826905
-316.519202682
-315.174005055
-267.28098519
-183.251219076
-91.7227792218
-10.0842532173
98.323261466
15.5415299542
28.6053230376
23.4229628636
20.9960947286
26.0278291938
33.5860529266
3.67952853598
5.12306671966
4.47281469135
4.18823090021
4.00389825504
3.89097163788
3.82058051399
3.77787905663
3.7534879236
3.74137084432
3.7377434979
3.74078266672
3.75091678033
3.7722084555
3.81558947863
3.91304046594
4.10636033902
4.55461807163
-1.57459055233
-0.25531421784
0.431877706005
1.41669597388
1.90449492842
1.9033429457
1.07504807941
-1.10766004366
-5.8224839678
-12.9728320809
-33.8579367044
-4.39993394748
-1729.3020901
334.338849526
3746.73097047
10258.6762553
15554.719375
19283.9089098
20782.9043542
19832.2851578
15962.8179047
9186.36909498
-4128.18488944
0
0
43.9832878447
21.015095412
-42.601843892
-119.731082242
-184.341173142
-215.470838911
-204.249028934
-151.684638229
-80.8580209525
-3.36033670179
98.2802629391
13.9697577555
27.9761527724
21.9126166994
18.3793272731
21.8631696028
24.8942661963
3.47936854229
4.80575307407
4.22898349532
3.96859550579
3.80071963524
3.70531808268
3.65386598701
3.6303296631
3.62452784274
3.63037193369
3.64477437077
3.6673947274
3.70110426231
3.75351028457
3.84044795833
3.99345476572
4.26799485738
4.59003306906
0.0832047673005
1.20165744539
2.07518959689
3.1785221219
3.86143074602
4.14148001499
3.77710562305
2.37854572537
-0.933513339447
-6.23451577524
-22.1281975464
-2.62666290388
-2201.62350927
-73.6974081818
4192.22144299
11269.357113
17765.4396597
23292.032898
27072.2057366
28633.3974873
27502.6114124
23948.4187388
13838.8817762
0
0
148.409818565
172.562899877
137.452098297
73.6459191379
2.81127989058
-53.3605584478
-79.8897133854
-70.443306212
-37.4851035011
12.042986257
92.8304115622
12.8555227975
27.4648463687
20.6640889898
16.0922243899
18.1087553589
17.2437717814
3.36435841352
4.50819183894
3.97013770381
3.73161177092
3.58511326332
3.51215950496
3.48331772316
3.48139844805
3.49567385624
3.52020086086
3.55267664122
3.59419184878
3.64980090571
3.72996401472
3.85394703927
4.04996144415
4.3850140678
4.59131872318
1.51103565301
2.62107188258
3.71972170325
4.95327550664
5.84785971549
6.4531309499
6.6459438923
6.20175850074
4.57880763468
1.50897028243
-9.01568996898
-0.474775876403
-2046.61633645
-118.794319173
4052.09343428
9993.47586736
15542.9581281
20407.2659724
23977.2875181
25767.3412651
25401.3940344
23245.6085928
16499.9250021
0
0
270.257327397
344.134086833
341.945743795
299.538371319
233.682802939
162.904889206
102.700039385
62.5178467338
40.1545134668
38.1075213444
82.9325756741
12.0448038762
27.1714796754
19.6817343605
14.1469147407
14.7877923057
10.4110095885
3.27163867181
4.21311374465
3.69284969968
3.47595625251
3.35605866697
3.31069469079
3.30830729015
3.33053979134
3.36636106582
3.41016554624
3.46050441533
3.51982080546
3.5950989539
3.69918312178
3.85417747642
4.08493033872
4.47290352257
4.58385347726
2.88897713898
4.08059090303
5.41377646859
6.76661930494
7.86467361703
8.80636149937
9.60318840427
10.2202905545
10.5384278487
10.1592937699
8.30055944491
2.95931597955
-916.407282265
-144.260101782
1658.32859168
3854.49607953
5888.94779025
7625.48425983
8865.19892456
9428.15372292
9161.94575319
8208.32669317
5733.60200405
0
0
377.798976636
495.497586562
525.993097775
509.999287148
459.856927551
388.725690833
307.8110316
224.375161931
142.718728541
73.2257763855
69.5893642296
11.4725606415
27.0390962438
18.9180738936
12.4929551929
11.8560342799
4.21215627744
3.17350869004
3.90565576192
3.39421625471
3.20177508063
3.11444033027
3.10183351453
3.12955578739
3.17822028778
3.23677641973
3.3001443587
3.36777093829
3.44333943556
3.53551642492
3.65925862254
3.83963992498
4.10002896986
4.5423090767
4.5808982569
4.37587118456
5.67066627792
7.21340263823
8.64636269681
9.91296610119
11.167563573
12.5632473108
14.2671262016
16.6470544157
19.2952591083
29.6743443146
8.20114674227
1026.98178429
-439.877341756
-3242.06933228
-6898.37561619
-9993.71554402
-12558.3001651
-14327.833359
-15059.6878939
-14689.6235957
-13593.066024
-10835.6618836
0
0
417.560322007
557.462851056
606.303599014
605.185582611
564.220447505
494.199887025
403.784307484
299.288587448
190.005645364
88.7296203181
60.1043179697
11.1504897362
26.9780355471
18.3133234638
11.0843868565
9.32062147177
-1.36672842204
3.05365292003
3.57022687123
3.06983639355
2.90883626204
2.86140430844
2.88688128929
2.94813939548
3.0251982346
3.10736088681
3.19026844991
3.27427797837
3.36416165688
3.47000127642
3.60869151771
3.8088485643
4.09556467802
4.59993862359
4.59230583388
6.13587638253
7.48835664119
9.17198263398
10.6129428832
11.9859581974
13.4949598459
15.4281260133
18.1401171481
22.4070006359
27.6853551548
46.0729683545
11.4347719523
1908.19308489
-431.470683481
-5011.63662887
-11812.8219078
-17960.6099583
-23294.9134516
-27166.2760926
-29048.1730442
-28621.9943447
-26410.4512678
-19529.4719595
0
0
392.480107924
534.591195978
590.261585164
597.188029807
563.882204815
500.247503301
413.700344028
309.503292917
199.211768338
93.25981497
55.4103816003
11.0361039452
26.9636043507
17.7981951239
9.86926548767
7.19592505758
-6.40097758824
2.90069412732
3.18998248266
2.71478596806
2.59771393202
2.5990611949
2.66795739641
2.76576379333
2.87272162817
2.978961661
3.08104396571
3.18021585387
3.28213215186
3.39794979631
3.54626457906
3.75985613831
4.06964832045
4.64852342563
4.62927302708
8.38986554728
9.6439296439
11.3430116826
12.6822114523
14.0714097525
15.743125062
18.1021140058
21.6656753309
27.5357425739
34.9807237963
58.278156256
13.4497358226
1773.00002712
-492.172117407
-4624.23393582
-11898.7941719
-18424.3903411
-23932.4021733
-27648.8084346
-29086.0109366
-27803.978275
-24152.0322692
-13993.2046252
0
0
329.909736466
461.013673713
516.585083303
528.005537472
502.127383549
448.395803973
373.525525587
281.841341808
185.502608773
91.7709601344
56.7022789073
11.1388241024
26.8853527046
17.279561496
8.82097234262
5.56719553764
-10.8513838835
2.69843283781
2.74500937938
2.32337213036
2.26893804925
2.32937557106
2.44688778912
2.58382366237
2.72179629191
2.85229691326
2.972990093
3.08595621851
3.19746715409
3.31929750433
3.47127299987
3.6905014665
4.01822881342
4.68607034732
4.71201866374
11.4743501212
12.2605178162
13.7598358659
14.852347612
16.1442491907
17.8569448852
20.4858070648
24.6835638336
31.8460968153
41.1334261848
69.5513688349
15.3786448552
1076.35807135
-905.85635066
-3898.11554716
-10155.1241954
-15075.3643764
-18419.3801085
-19563.7273561
-18277.0183444
-14092.7186835
-7046.97188647
6374.63040131
0
0
255.804866463
368.919296522
420.306892244
433.734025549
414.450085767
371.124888541
310.145126197
235.312131908
158.393699206
85.1078087346
61.5044641622
11.4929044801
26.5299269491
16.6423869844
7.93212228876
4.59310556985
-14.5570406083
2.42304264897
2.226288162
1.91183719202
1.94095264943
2.06837206151
2.23622211495
2.41182582773
2.57949338788
2.73254257465
2.86981986955
2.99405199101
3.11169678941
3.23440758276
3.38217993421
3.59516995854
3.9282339666
4.68910400419
4.8817890517
16.0060782678
15.4283317851
16.428701634
17.0808623912
18.153818671
19.7614690406
22.4642940851
27.0190661179
35.0954107578
45.9033391417
81.0052469024
17.8283071608
102.092105802
-1503.90590812
-3384.62967568
-7920.9798124
-10175.1038296
-10180.3023279
-7634.04797394
-2496.4170273
5943.77288134
18586.8619462
35313.4896522
0
0
185.768483596
278.280258015
322.929759532
336.055122068
321.924177034
287.472282443
239.021960756
180.197005482
121.856790032
71.1724303832
64.8585706066
12.1979977035
25.5690909802
15.7310294587
7.20251208722
4.48020426888
-16.4688614377
1.84372579156
1.45610190286
1.35137593681
1.50854835999
1.72973501783
1.96724786506
2.19665266266
2.40593981762
2.59078208632
2.75168445376
2.89237503082
3.01973345962
3.14527338048
3.28881447892
3.49230923594
3.82800412128
4.68823523991
5.47260126849
23.086278516
19.2744472268
19.363801935
19.3855837289
20.0922815851
21.4314786775
23.9671386886
28.5205438389
36.942237134
48.6024931899
89.8852720175
20.0035904339
-1059.03962565
-1931.30652725
-2878.25644115
-5405.50336554
-5175.13730057
-2911.95525802
1192.71004778
6938.25500417
15525.2806589
30617.2582132
51768.3627463
0
0
126.641508493
198.709506282
235.098589456
245.898614242
234.575836846
206.330853243
167.196604679
120.65995372
76.8893703834
47.1962864549
58.9315772777
13.3124989819
23.5557248013
14.3566200699
6.64863559683
5.58716678033
-18.4891083871
3.31502079527
2.83793426064
2.89810310879
3.08508374433
3.30674467503
3.5389723273
3.76325979119
3.96920357655
4.15108197918
4.30656533632
4.43500953438
4.53740334427
4.61714083277
4.68198510422
4.75376535053
4.88039713863
5.38695900473
6.91165902326
38.5591144801
22.9381643132
21.9404036277
21.2536114214
21.508541528
22.4469456465
24.5890742872
28.7768743653
36.8112010426
48.211856036
89.8969152452
16.8334073771
-2416.49490205
-2190.87456179
-2588.6818412
-3490.18592528
-2704.49698575
-1871.79779848
-2087.05169821
-4145.69211324
-6649.01310482
-6335.31346922
-11643.8361634
0
0
80.3420893333
133.874573263
161.375233392
168.247853024
157.050297731
131.957920412
98.2320097867
59.2761180422
23.8183102529
7.98034832524
24.2697566076
14.4565165697
19.9540678331
12.0083960179
5.69416416664
4.64473864052
-6.66254932793
5.59419405184
10.4679829644
11.4396054999
11.1165251132
11.0202722915
11.1930735015
11.6449084498
12.3000279203
13.1213573036
14.0896623078
15.2045599955
16.4794335926
17.9696226766
19.7994312493
22.3435309803
26.0046906169
33.8994667682
45.021646534
42.3810850659
29.6734913892
26.7108057436
25.2903953992
24.7836299712
24.9181765946
26.1220314639
29.1776707663
35.3941671907
43.9891429632
72.9683195099
-11.5741305087
-4280.22126911
-2214.28193094
-3032.71716304
-4864.92745834
-8316.95373125
-14476.7467724
-23545.5094067
-32975.4614546
-38316.7287635
-36420.4422715
-15598.7684928
0
0
48.1948143324
86.2851189146
104.918529602
106.57715241
93.4626591692
69.4342006427
37.6642141018
-0.282926392799
-40.6299988412
-63.069358502
-80.3692388598
11.0043691414
15.1243053281
12.1121861545
9.47460706573
11.2012551919
7.98971060456
10.9167479232
15.0843118812
15.9878994942
15.8428145288
15.8299134798
16.0879038734
16.6498460082
17.4151178375
18.3306118389
19.3644336244
20.4991083399
21.7202321442
23.0402677995
24.5103445704
26.3525746024
28.7264737772
33.0341103601
34.3235091617
24.6632965764
17.5761953841
15.0908484033
14.0970540966
14.0392567836
14.6518977296
16.3122953153
19.8610209101
26.2818899419
35.9083180675
57.9759631502
-45.3591675745
-7497.21510548
-2404.13448499
-6665.45432106
-16928.5640605
-31622.3949692
-40877.7371465
-38730.7374158
-26424.3520204
-10774.713869
2087.62615797
14844.1825796
0
0
30.8232737365
59.202136168
72.6036908235
71.733229278
57.9508026589
33.7900861708
-2.67169343798
-54.7197672454
-124.691215837
-175.616339006
-254.775805258
-21.0384537841
-11.639627086
-16.6950658546
-21.1345289616
-23.877154345
-31.3231560248
-23.9700513272
-12.4602179536
-4.27288325975
1.73067468718
6.39112094674
10.222162858
13.5884943303
16.6008954342
19.3934190482
22.0760792547
24.7530810573
27.5169217802
30.5924587904
34.523142349
40.2198150072
48.9903707469
64.3805906099
86.858703431
101.685077125
97.3943506826
90.9553823577
83.039810419
74.8501366977
67.0925505599
60.8158396556
57.623246869
59.1476758027
68.5763967156
77.4172398367
63.7698744362
-15565.2336598
-32352.606846
-39247.5898604
-39791.2880339
-32869.4898181
-23804.8006293
-14982.6574418
-6080.32722792
3223.94102153
11537.3183132
16688.6884705
0
0
28.5616505903
56.1134671844
72.2847811461
75.4206223846
64.6555795915
39.2767863597
-2.83262009899
-66.7491771273
-155.219947996
-229.12839899
-289.026905664
-206.410113531
-385.13250711
-757.764148551
-1155.11774687
-1556.91989159
-1985.76240442
-2519.38305262
-3162.87062628
-3909.01266623
-4732.80368278
-5609.75720673
-6538.03983027
-7545.5133351
-8642.98595384
-9839.87187845
-11141.2803406
-12546.7327938
-14050.4725231
-15640.7688785
-17298.1425648
-18994.5535616
-20734.3653625
-22552.3521776
-24539.9642181
-26603.5249922
-28471.854324
-29990.0802416
-31069.2681249
-31627.0567343
-31586.6101493
-30923.0809436
-29737.8027143
-28388.269797
-27220.2128309
-26166.8410659
-28055.3826542
-40718.4803265
-40950.3549119
-28174.0366583
-19741.3208248
-9200.06038357
78.4721467923
6617.08227337
10253.4021302
11404.9077222
10849.1442101
9363.33524779
0
0
-11.4452923636
4.69767555612
20.8958801696
32.5074443965
39.4182138613
45.5516146406
57.3480637579
82.9643375269
129.333169548
110.023231011
-333.947797935
-855.421802622
-978.706297834
-927.652860002
-871.834513213
-887.161835679
-968.700729476
-982.456607135
-822.216665139
-540.993324792
-218.747545869
102.128170595
396.485840297
692.979516511
1009.82200578
1359.40997806
1748.578152
2179.1853022
2645.29416763
3132.02406798
3608.39380728
4026.83786252
4313.85221714
4365.43580687
4096.759911
3592.16016116
2960.69506007
2145.87616584
1063.84079079
-413.975399704
-2459.58446912
-5301.32008289
-9243.05048353
-14612.3709707
-20960.7925732
-26156.6791057
-29473.2180605
-42270.2750826
-54421.6675255
-58062.3216265
-59549.2277482
-55580.448022
-47662.8718671
-37127.7103444
-24533.0799077
-10319.5066102
4766.88898625
18783.8454611
0
)
;

boundaryField
{
    inlet
    {
        type            calculated;
        value           uniform 0;
    }
    outlet
    {
        type            calculated;
        value           uniform 0;
    }
    bottomWall
    {
        type            calculated;
        value           uniform 0;
    }
    topWall
    {
        type            calculated;
        value           uniform 0;
    }
    frontAndBack
    {
        type            empty;
    }
}


// ************************************************************************* //
