/*--------------------------------*- C++ -*----------------------------------*\
| =========                 |                                                 |
| \\      /  F ield         | OpenFOAM: The Open Source CFD Toolbox           |
|  \\    /   O peration     | Version:  2512                                  |
|   \\  /    A nd           | Website:  www.openfoam.com                      |
|    \\/     M anipulation  |                                                 |
\*---------------------------------------------------------------------------*/
FoamFile
{
    version     2.0;
    format      ascii;
    arch        "LSB;label=32;scalar=64";
    class       volScalarField;
    location    "1";
    object      topOSensas1;
}
// * * * * * * * * * * * * * * * * * * * * * * * * * * * * * * * * * * * * * //

dimensions      [0 0 0 0 0 0 0];

internalField   nonuniform List<scalar> 
1440
(
0
-1.20190023356e-13
-2.04937993712e-13
-2.93748105437e-13
-4.20325796099e-13
-6.38147535467e-13
-1.0269257169e-12
-1.71372242117e-12
-2.90303519744e-12
-4.91968428007e-12
-8.26443709636e-12
-1.36743319963e-11
-2.21595252006e-11
-3.49439255845e-11
-5.31328696312e-11
-7.69419905373e-11
-1.0434029408e-10
-1.29441783747e-10
-1.42127427027e-10
-1.31086865033e-10
-8.8657348291e-11
-1.36686685121e-11
8.88167429566e-11
2.09429724488e-10
3.3679050553e-10
4.59476957549e-10
5.67279791225e-10
6.51655818599e-10
7.05626184016e-10
7.23622664399e-10
7.01894758397e-10
6.39956364854e-10
5.42933709386e-10
4.2344537079e-10
3.00447335942e-10
1.93270540976e-10
1.13511243713e-10
6.17099041051e-11
3.14363890197e-11
1.51382295917e-11
6.94031059991e-12
3.0644670058e-12
1.34350855176e-12
6.29659330999e-13
3.52685482352e-13
2.46042561014e-13
1.94294123772e-13
1.54148810846e-13
1.15366637397e-13
7.9859678602e-14
4.37392724229e-14
0
0
0
0
0
0
0
0
0
0
-1.22316757056e-13
-2.02947513155e-13
-2.91701872457e-13
-4.20110108708e-13
-6.41805140994e-13
-1.03821315287e-12
-1.74064711645e-12
-2.96212882718e-12
-5.04413830191e-12
-8.5194393211e-12
-1.41851386296e-11
-2.3161287474e-11
-3.68700446206e-11
-5.67131916295e-11
-8.3266155938e-11
-1.14710780743e-10
-1.44706450691e-10
-1.61428701557e-10
-1.51297492881e-10
-1.05217161889e-10
-2.19684532643e-11
9.24331560525e-11
2.27167583154e-10
3.69296651143e-10
5.06013800709e-10
6.26039519879e-10
7.20055557851e-10
7.80467993318e-10
8.01086117506e-10
7.77447072834e-10
7.08435941583e-10
5.99193229669e-10
4.63809355011e-10
3.24502267836e-10
2.04431125929e-10
1.17098446874e-10
6.20708879415e-11
3.08595374733e-11
1.45090092047e-11
6.49119846505e-12
2.79656323903e-12
1.2033008364e-12
5.66860912913e-13
3.32226773958e-13
2.46142946761e-13
2.0215632138e-13
1.62647676598e-13
1.21411669609e-13
8.45762185905e-14
4.74697205643e-14
0
0
0
0
0
0
0
0
0
0
-1.08217854391e-13
-1.86530665489e-13
-2.77837815978e-13
-4.12421647032e-13
-6.44238927022e-13
-1.05830961392e-12
-1.79428226636e-12
-3.08205743963e-12
-5.29634342708e-12
-9.03420752416e-12
-1.52143318228e-11
-2.51799810995e-11
-4.07633202862e-11
-6.39958759165e-11
-9.62625374214e-11
-1.36329557301e-10
-1.7706836396e-10
-2.02940248831e-10
-1.95252511224e-10
-1.4173977336e-10
-4.11466756771e-11
9.84023334608e-11
2.62952435225e-10
4.36228959182e-10
6.02489090432e-10
7.48217017856e-10
8.62508132087e-10
9.36528608192e-10
9.62814679181e-10
9.35385016785e-10
8.51676956905e-10
7.16663349359e-10
5.47429838694e-10
3.73302075376e-10
2.26021141644e-10
1.23264300324e-10
6.20950242186e-11
2.93198507621e-11
1.30490973782e-11
5.48177827264e-12
2.19061174947e-12
8.71778691236e-13
4.00263693882e-13
2.57130907356e-13
2.18002560038e-13
1.95249644521e-13
1.62687370902e-13
1.2149824231e-13
8.53307773298e-14
4.87912236441e-14
0
0
0
0
0
0
0
0
0
0
-9.09492989916e-14
-1.68267099836e-13
-2.64716077897e-13
-4.09685682867e-13
-6.57998250376e-13
-1.09994192977e-12
-1.88728494196e-12
-3.27481002066e-12
-5.68673383842e-12
-9.81702411882e-12
-1.677017619e-11
-2.82363218894e-11
-4.66841027053e-11
-7.51807515967e-11
-1.16556234223e-10
-1.70896317201e-10
-2.30324052008e-10
-2.72976861068e-10
-2.70843768831e-10
-2.06018310568e-10
-7.7353732925e-11
1.03321497612e-10
3.16726019692e-10
5.40985764649e-10
7.55501610937e-10
9.431471662e-10
1.09054364553e-09
1.18697442964e-09
1.22299579179e-09
1.19009491349e-09
1.08303720105e-09
9.05979034128e-10
6.80556846367e-10
4.48315279254e-10
2.56476233184e-10
1.29986366911e-10
6.04992506827e-11
2.61751630443e-11
1.04662980548e-11
3.7794052499e-12
1.18030706978e-12
3.09251528955e-13
1.01359598888e-13
1.04607354802e-13
1.42932165572e-13
1.588203436e-13
1.43840102338e-13
1.10037123666e-13
7.86040590115e-14
4.55249019717e-14
0
0
0
0
0
0
0
0
0
0
-7.76574361479e-14
-1.55515474791e-13
-2.5906162985e-13
-4.17718379126e-13
-6.87976260436e-13
-1.16694205524e-12
-2.02188696132e-12
-3.53978858173e-12
-6.20969482094e-12
-1.08542353206e-11
-1.88291394746e-11
-3.23039917479e-11
-5.46327944778e-11
-9.04215719486e-11
-1.44861317041e-10
-2.20737798502e-10
-3.10415702256e-10
-3.82426609634e-10
-3.92616794482e-10
-3.13384873914e-10
-1.43930060419e-10
9.79258010794e-11
3.84502576013e-10
6.8518877484e-10
9.71944726876e-10
1.22229039424e-09
1.41935736394e-09
1.54989118445e-09
1.60170306143e-09
1.56243244816e-09
1.42224775805e-09
1.18295439661e-09
8.72159567491e-10
5.50807335527e-10
2.92437754111e-10
1.33793408391e-10
5.5368500033e-11
2.05732155984e-11
6.42268287086e-12
1.26073279307e-12
-2.76241521803e-13
-4.97644915686e-13
-3.34025262233e-13
-1.26762749682e-13
2.04356847646e-14
9.29720892759e-14
1.06866164228e-13
8.82169515805e-14
6.57930914432e-14
3.90459818626e-14
0
0
0
0
0
0
0
0
0
0
-6.98249891206e-14
-1.49386199518e-13
-2.60931627873e-13
-4.35129302758e-13
-7.31126501501e-13
-1.25425136956e-12
-2.19013662154e-12
-3.86418119663e-12
-6.84372502774e-12
-1.21090642742e-11
-2.1329769217e-11
-3.72890441759e-11
-6.44994350635e-11
-1.09711748019e-10
-1.81745294481e-10
-2.8846413166e-10
-4.25625638355e-10
-5.49643545702e-10
-5.89150436991e-10
-4.98721182307e-10
-2.76981898036e-10
4.93814082924e-11
4.39741370725e-10
8.4993698971e-10
1.24060345296e-09
1.58143566903e-09
1.85080255076e-09
2.03225590016e-09
2.11010828717e-09
2.06653998134e-09
1.88426855229e-09
1.5597281746e-09
1.12725792052e-09
6.77088192329e-10
3.26028752857e-10
1.2891506197e-10
4.40554273454e-11
1.14751380154e-11
5.50173466147e-13
-2.1899725057e-12
-2.20744244497e-12
-1.55008961343e-12
-9.00084155847e-13
-4.303141963e-13
-1.43501937092e-13
2.72544200531e-15
5.56806142566e-14
5.859122576e-14
4.88694865944e-14
3.08269356094e-14
0
0
0
0
0
0
0
0
0
0
-6.63616359938e-14
-1.4836179335e-13
-2.67946150879e-13
-4.58122492859e-13
-7.8180760019e-13
-1.35372116008e-12
-2.38006456279e-12
-4.22943250474e-12
-7.55811559606e-12
-1.35280877209e-11
-2.41774533495e-11
-4.30283278139e-11
-7.60344926562e-11
-1.32774248312e-10
-2.27314877338e-10
-3.76275858375e-10
-5.86184116656e-10
-8.10310330913e-10
-9.3919585453e-10
-8.86097903687e-10
-6.34258067669e-10
-2.17799541031e-10
3.02534164341e-10
8.594842117e-10
1.3944683275e-09
1.86438621501e-09
2.24042191339e-09
2.50210060366e-09
2.62988913751e-09
2.59943536498e-09
2.38317390392e-09
1.96798815075e-09
1.39388247235e-09
7.90094077228e-10
3.35455713256e-10
1.0636787423e-10
2.32801766187e-11
-2.23021777862e-12
-7.49769831771e-12
-6.66601768287e-12
-4.62959910806e-12
-2.84447886848e-12
-1.5901297701e-12
-8.00320467171e-13
-3.44560190832e-13
-1.08740437543e-13
-7.51322074405e-15
2.24409737922e-14
2.87018129425e-14
2.14202232261e-14
0
0
0
0
0
0
0
0
0
0
-6.56201468145e-14
-1.50345925075e-13
-2.77400477813e-13
-4.82936788553e-13
-8.34595684417e-13
-1.4573345393e-12
-2.57933529953e-12
-4.61537322618e-12
-8.31764784807e-12
-1.5046531448e-11
-2.72497590669e-11
-4.92912493401e-11
-8.8826416157e-11
-1.58949122463e-10
-2.80809876683e-10
-4.84659670766e-10
-8.00460746516e-10
-1.20829089132e-09
-1.57501761072e-09
-1.72471196276e-09
-1.56663697469e-09
-1.120682357e-09
-4.76942677276e-10
2.5468595903e-10
9.79196016189e-10
1.62958492897e-09
2.16436640682e-09
2.55758895889e-09
2.78686130336e-09
2.82307367528e-09
2.62890790647e-09
2.17906860669e-09
1.5145023799e-09
8.01952605877e-10
2.84819234427e-10
5.49974516372e-11
-1.02845322295e-11
-2.14793012803e-11
-1.79514254744e-11
-1.22042305436e-11
-7.53545261192e-12
-4.36918602172e-12
-2.39624590192e-12
-1.23257314221e-12
-5.80832064907e-13
-2.4066185953e-13
-8.24442699729e-14
-2.01680385089e-14
5.28272035282e-15
1.0779387901e-14
0
0
0
0
0
0
0
0
0
0
-6.615543896e-14
-1.5344937177e-13
-2.87052522223e-13
-5.06635876897e-13
-8.85188666729e-13
-1.55834070691e-12
-2.77672961938e-12
-5.00222170242e-12
-9.08540867053e-12
-1.6592359215e-11
-3.04021370142e-11
-5.57851684567e-11
-1.02292310366e-10
-1.87109273279e-10
-3.40209016965e-10
-6.10762764144e-10
-1.06842734576e-09
-1.76969710106e-09
-2.61857890868e-09
-3.29417002976e-09
-3.50901728574e-09
-3.206553902e-09
-2.51168428254e-09
-1.60829936583e-09
-6.57779668972e-10
2.289634803e-10
9.87590835328e-10
1.58417090998e-09
1.99675865803e-09
2.19896629578e-09
2.15249149286e-09
1.8238620975e-09
1.24526081136e-09
5.92103157158e-10
1.34437292697e-10
-3.50919370687e-11
-5.89315013457e-11
-4.6688392598e-11
-3.08121572661e-11
-1.87459940325e-11
-1.08795117842e-11
-6.09803288233e-12
-3.30564231895e-12
-1.72190323239e-12
-8.50953124327e-13
-3.9324851289e-13
-1.69719375771e-13
-6.97402095956e-14
-2.1793248604e-14
-1.3860062286e-15
0
0
0
0
0
0
0
0
0
0
-6.69383290181e-14
-1.56276650451e-13
-2.95283236405e-13
-5.27175933418e-13
-9.30488867875e-13
-1.65147189007e-12
-2.96266260643e-12
-5.37167203155e-12
-9.82496046656e-12
-1.80905254681e-11
-3.34760334006e-11
-6.21695241508e-11
-1.15696445215e-10
-2.15655905782e-10
-4.02043573724e-10
-7.47232403105e-10
-1.37565637091e-09
-2.47290393757e-09
-4.07208356476e-09
-5.67584908569e-09
-6.64554554997e-09
-6.74980839254e-09
-6.14157885927e-09
-5.11241717261e-09
-3.92607352575e-09
-2.76265823212e-09
-1.72294496147e-09
-8.52576697675e-10
-1.68286266237e-10
3.18822073946e-10
5.87297412798e-10
6.09218426698e-10
3.9636265966e-10
7.50972334144e-11
-1.38409379042e-10
-1.67619844547e-10
-1.22665374978e-10
-7.74150242898e-11
-4.57559175229e-11
-2.61082305017e-11
-1.45677732787e-11
-7.98539541854e-12
-4.29745735527e-12
-2.25971200159e-12
-1.15214640584e-12
-5.66217696651e-13
-2.69843937014e-13
-1.26801286168e-13
-5.2991147324e-14
-1.54133237206e-14
0
0
0
0
0
0
0
0
0
0
-6.73246769889e-14
-1.57933145243e-13
-3.01073377844e-13
-5.43286915293e-13
-9.68465231893e-13
-1.73289338813e-12
-3.12940787094e-12
-5.70773572038e-12
-1.0502516594e-11
-1.94680718247e-11
-3.6310464235e-11
-6.80816983198e-11
-1.2820660005e-10
-2.42634472923e-10
-4.61601903326e-10
-8.82389351087e-10
-1.69225834699e-09
-3.23850289132e-09
-5.76007076541e-09
-8.59510772316e-09
-1.06467212521e-08
-1.14158633582e-08
-1.10598619024e-08
-9.99355286362e-09
-8.6070569939e-09
-7.16905469163e-09
-5.82858511773e-09
-4.64731721735e-09
-3.63340510816e-09
-2.77079524046e-09
-2.04444148248e-09
-1.45786862422e-09
-1.02702579509e-09
-7.38526272382e-10
-5.23318524627e-10
-3.36530330783e-10
-1.98376671737e-10
-1.12172648013e-10
-6.20958983039e-11
-3.39774070207e-11
-1.84571192819e-11
-9.96572519898e-12
-5.34177658419e-12
-2.8327114728e-12
-1.47896510899e-12
-7.5774280126e-13
-3.82486384493e-13
-1.91474661379e-13
-8.8586022796e-14
-3.15574024832e-14
0
0
0
0
0
0
0
0
0
0
-6.69876722795e-14
-1.57940914455e-13
-3.03878783869e-13
-5.54303832933e-13
-9.97957462599e-13
-1.80005823661e-12
-3.27118553766e-12
-5.99743867569e-12
-1.10890927658e-11
-2.06597597733e-11
-3.87561873416e-11
-7.31727345828e-11
-1.38985256745e-10
-2.65972243736e-10
-5.13567753291e-10
-1.00203308188e-09
-1.97851261477e-09
-3.94991643079e-09
-7.38441965722e-09
-1.15082885123e-08
-1.4772755232e-08
-1.63707505025e-08
-1.64246005424e-08
-1.54517465546e-08
-1.3962979846e-08
-1.23174239755e-08
-1.07165334404e-08
-9.24122321135e-09
-7.89109307491e-09
-6.61775496572e-09
-5.35839046947e-09
-4.07919010219e-09
-2.82656217747e-09
-1.74392792654e-09
-9.77351291262e-10
-5.25916266114e-10
-2.79906888912e-10
-1.48506262651e-10
-7.88293836166e-11
-4.19336351298e-11
-2.23667576332e-11
-1.19587232293e-11
-6.40179652923e-12
-3.4236379494e-12
-1.82332038933e-12
-9.64204238977e-13
-5.06187500968e-13
-2.6326176148e-13
-1.28516230777e-13
-4.99119555911e-14
0
0
0
0
0
0
0
0
0
0
-6.58020346295e-14
-1.5608316245e-13
-3.03454509402e-13
-5.59940971334e-13
-1.01839200077e-12
-1.85144242447e-12
-3.38406125044e-12
-6.23123388241e-12
-1.15622793763e-11
-2.16133479916e-11
-4.06901647533e-11
-7.71466665795e-11
-1.47298905615e-10
-2.83790598084e-10
-5.52946831151e-10
-1.09233328341e-09
-2.19454346679e-09
-4.48916964648e-09
-8.63679583284e-09
-1.38293329107e-08
-1.81945964638e-08
-2.06500697892e-08
-2.12369759237e-08
-2.05172017675e-08
-1.90821741014e-08
-1.73613949369e-08
-1.56019464247e-08
-1.39041465565e-08
-1.22620030458e-08
-1.05981699746e-08
-8.80457749914e-09
-6.81179286539e-09
-4.70042885483e-09
-2.7822860655e-09
-1.43703037885e-09
-7.13076689353e-10
-3.59014882467e-10
-1.83335993434e-10
-9.47670642655e-11
-4.95013657522e-11
-2.60990734695e-11
-1.3878501699e-11
-7.4381843884e-12
-4.01347346664e-12
-2.17563345201e-12
-1.18074375189e-12
-6.3856932798e-13
-3.41072643081e-13
-1.72372324375e-13
-7.0402944198e-14
0
0
0
0
0
0
0
0
0
0
-6.36851940086e-14
-1.52189563052e-13
-2.9961300566e-13
-5.60022148361e-13
-1.02947623665e-12
-1.88621960515e-12
-3.46570329663e-12
-6.403119597e-12
-1.19074409122e-11
-2.2293778085e-11
-4.20279583781e-11
-7.97960741582e-11
-1.5262228743e-10
-2.94717004646e-10
-5.76024610884e-10
-1.1428419645e-09
-2.30977938353e-09
-4.7636265124e-09
-9.26141449774e-09
-1.50337178044e-08
-2.01115953698e-08
-2.32573939731e-08
-2.44047749167e-08
-2.40801774827e-08
-2.28854147158e-08
-2.1276339157e-08
-1.95240115588e-08
-1.77414632436e-08
-1.59200259807e-08
-1.39631324322e-08
-1.17321522814e-08
-9.13714876152e-09
-6.29688769939e-09
-3.66916609338e-09
-1.83029340864e-09
-8.7304767446e-10
-4.269327037e-10
-2.13485576055e-10
-1.08715197187e-10
-5.62135128126e-11
-2.94626820384e-11
-1.56420446817e-11
-8.41226152745e-12
-4.5826864029e-12
-2.52533780304e-12
-1.40146667931e-12
-7.76402181305e-13
-4.232277129e-13
-2.19385464269e-13
-9.27850780793e-14
0
0
0
0
0
0
0
0
0
0
-6.03745593281e-14
-1.45837234433e-13
-2.91893184351e-13
-5.54121672257e-13
-1.03080822686e-12
-1.90385653792e-12
-3.51503586507e-12
-6.5105440282e-12
-1.21183910028e-11
-2.26860268244e-11
-4.27326958572e-11
-8.10286596092e-11
-1.54717870416e-10
-2.98125857573e-10
-5.81112528256e-10
-1.14886962512e-09
-2.3107780573e-09
-4.73389448388e-09
-9.14981924203e-09
-1.48788987686e-08
-2.00990854484e-08
-2.3584162776e-08
-2.5170707812e-08
-2.52829043204e-08
-2.44593813545e-08
-2.31290163191e-08
-2.15563008053e-08
-1.98547100934e-08
-1.80149035374e-08
-1.59352523624e-08
-1.34701579003e-08
-1.05319447053e-08
-7.27259361822e-09
-4.23158602997e-09
-2.09210851413e-09
-9.84123577733e-10
-4.7620634705e-10
-2.36288888821e-10
-1.19678285671e-10
-6.16808486324e-11
-3.2296828693e-11
-1.71780332689e-11
-9.28931971497e-12
-5.11256021181e-12
-2.86146582691e-12
-1.61972524974e-12
-9.15737177739e-13
-5.07495855559e-13
-2.68444880566e-13
-1.16661583404e-13
0
0
0
0
0
0
0
0
0
0
-5.53658351188e-14
-1.3628533668e-13
-2.79499385508e-13
-5.41500349105e-13
-1.02178986031e-12
-1.90398895324e-12
-3.53209153714e-12
-6.55430696988e-12
-1.21975684365e-11
-2.27961907368e-11
-4.28188251723e-11
-8.08786722895e-11
-1.53670523461e-10
-2.94242907985e-10
-5.68864901437e-10
-1.1124635605e-09
-2.20419411378e-09
-4.42077810183e-09
-8.35611457415e-09
-1.34461033146e-08
-1.82046991519e-08
-2.15746382035e-08
-2.33394456941e-08
-2.37908514707e-08
-2.33528954922e-08
-2.23830956581e-08
-2.11105847799e-08
-1.96364342963e-08
-1.79524382479e-08
-1.5967053053e-08
-1.35520456813e-08
-1.06409920503e-08
-7.39892936484e-09
-4.35513220163e-09
-2.18072488433e-09
-1.03319757553e-09
-5.02364343731e-10
-2.50115752011e-10
-1.27028437443e-10
-6.56470453304e-11
-3.44885897202e-11
-1.8431245473e-11
-1.00387263155e-11
-5.58399974327e-12
-3.1712580947e-12
-1.82696128631e-12
-1.05114003075e-12
-5.90695859545e-13
-3.17866086312e-13
-1.41353226203e-13
0
0
0
0
0
0
0
0
0
0
-4.79857917694e-14
-1.22614915045e-13
-2.61484971721e-13
-5.21314261654e-13
-1.00184412512e-12
-1.88662821411e-12
-3.51818067241e-12
-6.53865435258e-12
-1.21559893903e-11
-2.26511329844e-11
-4.23509553125e-11
-7.95031487471e-11
-1.49874237547e-10
-2.84096890358e-10
-5.4210409086e-10
-1.04181072783e-09
-2.01510245883e-09
-3.9041241758e-09
-7.10758507229e-09
-1.11870074982e-08
-1.50678100141e-08
-1.79461282763e-08
-1.9603030343e-08
-2.02084049616e-08
-2.00590411402e-08
-1.94222980698e-08
-1.84768647006e-08
-1.73041857509e-08
-1.58991818311e-08
-1.41911657382e-08
-1.20847105169e-08
-9.54232213375e-09
-6.71717131737e-09
-4.04975311099e-09
-2.09573712931e-09
-1.01984501581e-09
-5.04983605596e-10
-2.5468824953e-10
-1.30608040384e-10
-6.80238082153e-11
-3.59850986355e-11
-1.93666352963e-11
-1.06350014636e-11
-5.9774754847e-12
-3.43969740465e-12
-2.01215844818e-12
-1.17524866087e-12
-6.68430201073e-13
-3.65204168599e-13
-1.65773565599e-13
0
0
0
0
0
0
0
0
0
0
-3.7615061406e-14
-1.04094930283e-13
-2.37199642017e-13
-4.93114521365e-13
-9.70948459092e-13
-1.85269510811e-12
-3.47635919002e-12
-6.47153472512e-12
-1.20129334193e-11
-2.22966616605e-11
-4.14378896525e-11
-7.71637395925e-11
-1.43974735553e-10
-2.69333798474e-10
-5.05203852078e-10
-9.49142085099e-10
-1.7798276641e-09
-3.29902020388e-09
-5.72708824635e-09
-8.74788767597e-09
-1.16547553479e-08
-1.38901262843e-08
-1.52645983707e-08
-1.58606265583e-08
-1.58679390405e-08
-1.54713068874e-08
-1.48002712381e-08
-1.39166394088e-08
-1.28197167268e-08
-1.14625705351e-08
-9.78505386165e-09
-7.77580025901e-09
-5.56201229641e-09
-3.46568064247e-09
-1.88280126969e-09
-9.56609364315e-10
-4.87667846514e-10
-2.5107917628e-10
-1.30737264413e-10
-6.88974168763e-11
-3.67977945875e-11
-1.99719576596e-11
-1.10594463245e-11
-6.27399896241e-12
-3.65000633343e-12
-2.16199247143e-12
-1.27873718813e-12
-7.35016389379e-13
-4.07133664128e-13
-1.88299001334e-13
0
0
0
0
0
0
0
0
0
0
-2.40753061911e-14
-8.07789229397e-14
-2.0699103866e-13
-4.57614157594e-13
-9.30439577433e-13
-1.80481637623e-12
-3.41210971911e-12
-6.36491073532e-12
-1.17952648624e-11
-2.1794274437e-11
-4.02225075441e-11
-7.41972877417e-11
-1.36781340396e-10
-2.5194572872e-10
-4.63222104874e-10
-8.47802669775e-10
-1.53528255261e-09
-2.71311812085e-09
-4.48411570223e-09
-6.6333457262e-09
-8.71746756056e-09
-1.03665521854e-08
-1.14303134484e-08
-1.19395147206e-08
-1.20088787129e-08
-1.17608354999e-08
-1.12860680152e-08
-1.06306292191e-08
-9.79798848477e-09
-8.76135689527e-09
-7.48891748752e-09
-5.98705546064e-09
-4.35543462177e-09
-2.81255366599e-09
-1.61391131806e-09
-8.64221775546e-10
-4.56826506761e-10
-2.4138880966e-10
-1.28127319193e-10
-6.85065564765e-11
-3.69983539247e-11
-2.02587250175e-11
-1.13022680346e-11
-6.45719998651e-12
-3.78525747414e-12
-2.2618494687e-12
-1.35082199892e-12
-7.83710135376e-13
-4.394394979e-13
-2.06636171884e-13
0
0
0
0
0
0
0
0
0
0
-8.22015284645e-15
-5.43488769142e-14
-1.73165906332e-13
-4.17725626834e-13
-8.84094208436e-13
-1.74838305873e-12
-3.33422894533e-12
-6.23513296467e-12
-1.15364769626e-11
-2.12168582039e-11
-3.88689654562e-11
-7.09806014843e-11
-1.29168053757e-10
-2.33987837026e-10
-4.2106242924e-10
-7.49626177405e-10
-1.31004009757e-09
-2.21284897817e-09
-3.4994971705e-09
-5.02554325853e-09
-6.51264879536e-09
-7.71670121599e-09
-8.52325712029e-09
-8.93655079658e-09
-9.02386700988e-09
-8.86511270823e-09
-8.52322890061e-09
-8.03266763508e-09
-7.39973329504e-09
-6.61169113859e-09
-5.65534442052e-09
-4.54607819264e-09
-3.36005648274e-09
-2.24258361402e-09
-1.3537772537e-09
-7.64031172003e-10
-4.19785869594e-10
-2.28231095587e-10
-1.23733656442e-10
-6.72012977526e-11
-3.67098798639e-11
-2.02634031088e-11
-1.13666388252e-11
-6.51777275292e-12
-3.8322363812e-12
-2.29866735495e-12
-1.3809769735e-12
-8.0758751598e-13
-4.57337032013e-13
-2.17797717015e-13
0
0
0
0
0
0
0
0
0
0
7.24891628454e-15
-2.91640240036e-14
-1.41142236109e-13
-3.79787869193e-13
-8.39390778494e-13
-1.69275966297e-12
-3.25580001663e-12
-6.1032712288e-12
-1.12754496989e-11
-2.06436595068e-11
-3.75485697918e-11
-6.78943656145e-11
-1.21981670179e-10
-2.17346497398e-10
-3.82892919422e-10
-6.63520089679e-10
-1.12130405956e-09
-1.82081453665e-09
-2.77430339455e-09
-3.88236910643e-09
-4.9652811841e-09
-5.85899687762e-09
-6.47719037382e-09
-6.81178998177e-09
-6.90141710279e-09
-6.79826001387e-09
-6.54631085403e-09
-6.17169294071e-09
-5.68213181901e-09
-5.07356192915e-09
-4.34354938681e-09
-3.51058120446e-09
-2.63257920898e-09
-1.8076271311e-09
-1.13823813163e-09
-6.72183547577e-10
-3.83133194466e-10
-2.14233138852e-10
-1.18601763017e-10
-6.53993881207e-11
-3.60999422189e-11
-2.00527357695e-11
-1.12777268681e-11
-6.462968307e-12
-3.78996465678e-12
-2.26766416146e-12
-1.36337784547e-12
-8.01922377832e-13
-4.56687588562e-13
-2.1855294614e-13
0
0
0
0
0
0
0
0
0
0
1.72474126103e-14
-1.27424849367e-14
-1.19889147407e-13
-3.53991319781e-13
-8.07893416447e-13
-1.65153843983e-12
-3.19412242402e-12
-5.9942911371e-12
-1.10538960177e-11
-2.01537388787e-11
-3.64240704232e-11
-6.52873267605e-11
-1.15964661851e-10
-2.03585136661e-10
-3.51889150321e-10
-5.95349939363e-10
-9.77218968682e-10
-1.53570223793e-09
-2.26966319719e-09
-3.10760613575e-09
-3.92772327772e-09
-4.61531444126e-09
-5.10403008901e-09
-5.38065697567e-09
-5.4670629753e-09
-5.39805651567e-09
-5.20523830472e-09
-4.90901665e-09
-4.51766824707e-09
-4.03214967767e-09
-3.4558638015e-09
-2.80764573995e-09
-2.13244194799e-09
-1.4990957241e-09
-9.76403020833e-10
-5.98211460792e-10
-3.51898194258e-10
-2.01696351558e-10
-1.13744143571e-10
-6.35499284771e-11
-3.53779869807e-11
-1.9734014983e-11
-1.10975302787e-11
-6.33247599155e-12
-3.68482544361e-12
-2.18537835563e-12
-1.30656392248e-12
-7.69793140609e-13
-4.3760350517e-13
-2.07567294727e-13
0
0
0
0
0
0
0
0
0
0
1.58818977594e-14
-1.30650204665e-14
-1.18529883311e-13
-3.50437149555e-13
-8.00821312956e-13
-1.63761506895e-12
-3.16518392527e-12
-5.93055978393e-12
-1.09079717802e-11
-1.98134850332e-11
-3.56280105926e-11
-6.34350197065e-11
-1.11687564156e-10
-1.93854959829e-10
-3.30216034048e-10
-5.48548335725e-10
-8.80804426044e-10
-1.35099282591e-09
-1.95216089859e-09
-2.6289493872e-09
-3.2917035405e-09
-3.85403875647e-09
-4.26220065838e-09
-4.50113210176e-09
-4.58354412961e-09
-4.53417059932e-09
-4.37718165966e-09
-4.12942061601e-09
-3.79929200903e-09
-3.39042962833e-09
-2.90915791183e-09
-2.37375543534e-09
-1.82098190007e-09
-1.3028681088e-09
-8.69620819563e-10
-5.4715296575e-10
-3.29500769981e-10
-1.92413862754e-10
-1.10033193544e-10
-6.20823023202e-11
-3.47734164404e-11
-1.94475244968e-11
-1.09248104739e-11
-6.20276294884e-12
-3.57778124601e-12
-2.09866310016e-12
-1.24275027615e-12
-7.2931165921e-13
-4.10614148274e-13
-1.90289279451e-13
0
0
0
0
0
0
0
0
0
0
5.69003421772e-15
-2.5977353375e-14
-1.3193767458e-13
-3.63519272019e-13
-8.12594402591e-13
-1.6461330585e-12
-3.16603858459e-12
-5.91336833843e-12
-1.084809913e-11
-1.96529012331e-11
-3.52317186325e-11
-6.24928795347e-11
-1.09491460736e-10
-1.88852266705e-10
-3.1912597002e-10
-5.24836959079e-10
-8.32674900299e-10
-1.26046382689e-09
-1.79911578145e-09
-2.40066172444e-09
-2.98979650437e-09
-3.49302284889e-09
-3.86263997784e-09
-4.0830791834e-09
-4.16302976731e-09
-4.12261944716e-09
-3.98254413315e-09
-3.75793565204e-09
-3.45719080813e-09
-3.08508605328e-09
-2.64913297641e-09
-2.16712978168e-09
-1.67189622201e-09
-1.20780866245e-09
-8.16828114521e-10
-5.21280020741e-10
-3.1791175738e-10
-1.87534466391e-10
-1.08061016729e-10
-6.12984436092e-11
-3.44523371271e-11
-1.92986617703e-11
-1.08376945128e-11
-6.13840105344e-12
-3.52451220601e-12
-2.05476138654e-12
-1.20935923538e-12
-7.06654358716e-13
-3.94745203048e-13
-1.79790979656e-13
0
0
0
0
0
0
0
0
0
)
;

boundaryField
{
    inlet
    {
        type            calculated;
        value           uniform 0;
    }
    outlet
    {
        type            calculated;
        value           uniform 0;
    }
    bottomWall
    {
        type            calculated;
        value           uniform 0;
    }
    topWall
    {
        type            calculated;
        value           uniform 0;
    }
    frontAndBack
    {
        type            empty;
    }
}


// ************************************************************************* //
