/*--------------------------------*- C++ -*----------------------------------*\
| =========                 |                                                 |
| \\      /  F ield         | OpenFOAM: The Open Source CFD Toolbox           |
|  \\    /   O peration     | Version:  2512                                  |
|   \\  /    A nd           | Website:  www.openfoam.com                      |
|    \\/     M anipulation  |                                                 |
\*---------------------------------------------------------------------------*/
FoamFile
{
    version     2.0;
    format      ascii;
    arch        "LSB;label=32;scalar=64";
    class       volScalarField;
    location    "1";
    object      topologySensas1;
}
// * * * * * * * * * * * * * * * * * * * * * * * * * * * * * * * * * * * * * //

dimensions      [0 5 -2 0 0 0 0];

internalField   nonuniform List<scalar> 
1440
(
0
-67.2194929024
-124.887735567
-220.140671882
-144.25445957
-63.0914755656
34.7135059599
213.476394359
596.971413087
1188.71704516
673.759514437
-6411.10689917
-14565.7037325
-17135.6278229
-16652.8605305
-15248.0866582
-13924.3667579
-12946.0265415
-12141.20937
-11260.4543621
-10231.2947018
-9111.91097161
-7988.36825231
-6907.58070045
-5930.75518904
-5053.94404359
-4263.68412305
-3544.68551926
-2882.40052695
-2263.80562792
-1675.11352122
-1098.21035505
-506.943558587
138.04702379
900.865988205
1854.16268091
2989.12131718
4203.56799208
5411.05122307
6577.99486335
7680.82995705
8703.01008761
9619.22799886
10382.7693534
10908.8420936
11011.5640048
10270.0799001
8045.23431827
5306.34088712
3345.87621431
2226.87846589
1377.11795888
748.521040076
279.92782917
-65.1313037221
-312.802046664
-494.518835753
-629.214471749
-712.805798035
0
0
-1491.03929136
-981.067097878
-1005.24296816
-860.765738427
-818.389207273
-898.400347202
-1154.58678768
-1667.81942832
-2495.02870353
-3061.96153753
-2966.34886724
-274.571602035
341.549832902
-450.50279874
-844.285235667
-742.492601053
-138.384471403
437.38634978
780.470691284
1012.28583385
1233.77155843
1466.59194453
1737.35366526
2079.62096712
2477.94884981
2905.78733285
3340.65540856
3761.38245344
4149.44823858
4486.49272053
4753.60188662
4930.58263069
5011.59995026
5015.89225023
5006.14197803
4973.91070666
4778.18673378
4353.87713569
3745.48322863
3003.94048949
2196.26390282
1398.29254471
701.103959412
214.187333432
28.3572625907
78.1333571115
73.8310452048
-572.606223145
-836.301515558
-612.313914957
-663.761922881
-692.565095847
-669.295087229
-592.135676408
-469.836775607
-335.708465227
-210.868923394
-109.164910105
0
0
-1692.09976036
-1507.20656321
-1615.69302177
-1479.63837273
-1385.25340732
-1345.22468385
-1424.27392704
-1689.69136515
-2237.82575675
-2621.87496508
-3330.74074334
-236.842134663
-136.09188654
-131.070991246
-125.367027974
-114.073886398
-96.3109437848
-52.983123512
-20.9344696167
-2.38693430852
8.53584027773
15.2338387364
18.9361124627
21.0152343036
21.8773904923
22.1451430723
22.0300278343
21.7568051533
21.3780552374
20.9012646294
20.0181332006
18.2949099955
14.9191359293
7.7444214875
-5.11932589316
-16.9125779697
-13.3869595582
-6.85478667058
0.756434446055
7.95728632351
14.2549477377
19.4612709679
23.5897289946
27.2768875717
32.6415179732
58.791670915
83.2488722077
1002.04481381
647.503766936
296.070111354
-140.800579526
-387.646379254
-488.729264153
-540.424312997
-558.576349641
-558.380735166
-521.430162596
-428.809044273
0
0
-1512.51462721
-1604.05752546
-1788.52855415
-1670.56750888
-1521.65742575
-1371.55106605
-1273.67501275
-1239.50083701
-1325.16281746
-1360.6566079
-1547.61786028
44.4714678892
51.6506132155
81.478833311
81.140775145
85.2103291298
107.009452959
94.821282399
69.4724441309
54.4495530138
45.1634575943
39.0640767925
34.8537333097
31.8971103197
29.7053337521
28.0567168708
26.7611254085
25.7275438143
24.8776461254
24.1702000492
23.5268668327
22.802851162
21.7910040674
19.6464410154
17.4631866307
11.4736434729
11.6609132854
12.217538712
13.1295822671
13.9284845073
14.5759841822
15.0657136142
15.4538597129
16.0986889873
17.2172167297
25.2587173517
6.269823694
-53.7084201708
26.9365471996
341.952689833
545.981947792
552.295593252
302.782772211
-100.987007415
-462.426075679
-663.010569968
-690.66127723
-662.284088517
0
0
-1202.43896665
-1480.89741275
-1732.82150705
-1664.93876302
-1495.92901801
-1276.7019092
-1080.5897643
-911.044809979
-796.178109568
-623.987527359
-356.575389398
75.7163960267
50.5493775124
57.3868310063
55.932490029
69.0839018664
125.112744437
115.915813563
65.2693280316
44.5839170457
33.9687867853
27.4066665515
23.033113178
19.9641863832
17.7145356568
16.0138125806
14.6948266523
13.6562084724
12.8274464624
12.1480552678
11.5293686301
10.7731481879
9.63762176735
6.6772230573
2.35591746035
0.381728439829
4.50258640926
6.40648680041
8.41681928322
10.1610618028
11.6967380947
13.028272025
14.2310805892
15.6392894672
17.2608827345
23.6869929801
9.86203512949
102.676549021
-63.8252382903
112.777891904
196.40334228
307.588482087
406.033303352
451.053126054
401.36702013
264.518024263
5.62617733471
-547.468980328
0
0
-908.686317324
-1266.3037491
-1561.40914165
-1575.81266274
-1439.63711769
-1199.15950892
-944.409632133
-694.486993451
-496.682001502
-302.514631413
65.7012366656
58.3529489983
53.5917745472
54.5134365706
55.6729371376
74.8022002865
160.410311438
13.9455680958
13.4087766566
13.6095939562
14.0435294723
14.2772260343
14.2988286215
14.2033077765
14.01690145
13.7755220554
13.4977743682
13.2010769543
12.8951693066
12.590828507
12.2980077304
12.0376231885
11.8686362064
11.9629400972
14.3786052586
-4.73849854701
4.91149265631
6.91354341934
8.96866912239
10.5374956873
11.869030167
13.0089260281
14.0440602224
15.228369301
16.3941461444
20.9454705344
8.59182117476
152.429374044
-68.8098627759
-22.1982519713
-111.348020897
-116.178907012
-98.4642032056
-24.728188948
69.1509522108
119.36489316
102.831206928
168.44905715
0
0
-661.557172479
-1021.22030091
-1331.71387625
-1429.38862211
-1362.12943149
-1152.95347512
-882.431829964
-590.116018815
-340.964271488
-147.299980414
182.838527992
44.6802797136
54.3393680889
49.9997985911
50.4771467827
69.8778485025
118.662296491
12.8509697481
13.6641264135
12.0907698256
11.4300399587
10.9428296917
10.5199639231
10.1387461899
9.78795580872
9.46423820809
9.16370514661
8.88426869177
8.62453676256
8.38651619579
8.17730634958
8.01682824195
7.96475038194
8.136059659
9.85847064652
-2.4415677587
4.14201869815
6.56476684256
8.71458367397
10.2784431258
11.5655221062
12.6499236741
13.6174525625
14.6443012088
15.4794708606
18.6233110193
7.65646139314
193.351699401
-26.2514481458
-63.3706607023
-298.477695687
-480.054731896
-661.398754154
-786.95710482
-861.949516799
-955.996479001
-1213.43414747
-1835.09225
0
0
-459.755699938
-775.170275393
-1072.74749378
-1233.33238891
-1246.96910169
-1106.23230019
-864.836559561
-569.36747562
-294.393203696
-81.6267948325
206.419218014
35.9208868007
52.9922588134
45.5411712666
44.4245897202
61.7176131199
93.7685575865
9.88748193485
12.5998349921
11.4564010487
10.943026031
10.5361216017
10.1877505565
9.87224192244
9.58002848887
9.30703164366
9.05093224742
8.81165570824
8.59147194336
8.39715790903
8.24327302515
8.16034938124
8.21988129875
8.54267310473
10.0190079851
-1.11594426194
4.17754204523
6.5588807165
8.64918093194
10.1354029526
11.3273900039
12.3109889298
13.1641234924
14.0006963292
14.5318820922
16.6067180957
7.07047390826
224.620562333
35.9038121959
-78.5992684173
-446.963758556
-800.358261054
-1185.78967625
-1545.53320666
-1869.31145652
-2197.46919575
-2615.65551204
-3382.19981255
0
0
-285.338436181
-529.485393525
-789.471865023
-983.521200438
-1069.59945474
-1014.03153963
-836.764884122
-574.075731464
-303.57304634
-66.3964593335
199.618150215
30.3897443459
50.8872293846
41.4981044673
38.4037166369
52.9749579927
72.9750844829
9.31043351885
12.1490623938
11.190122328
10.7047519781
10.30979413
9.98272269286
9.69481303354
9.43298516609
9.19017035532
8.96311373173
8.75201560266
8.56087646206
8.39937285618
8.28639688707
8.25739744686
8.38101375607
8.76545629185
9.90233205417
0.431759687731
4.55329375176
6.72914225385
8.65778177095
10.0210901087
11.0939837387
11.9630333608
12.6960353674
13.3667611345
13.6751127727
15.0931288132
6.72622300614
239.933026838
76.2326193688
-136.092597377
-644.248409416
-1159.63246074
-1718.74944211
-2259.25011356
-2750.15192407
-3207.41191865
-3700.9401349
-4407.4350108
0
0
-102.215800632
-254.775754854
-461.778205742
-660.799090861
-798.680409702
-827.110036766
-735.697531425
-539.133290906
-305.417072567
-65.8607507773
185.910566406
26.7086176291
48.926959648
38.1847097667
33.0115272246
44.5941649881
54.606493482
9.15161919261
11.7059226232
10.8509039925
10.3992175335
10.0328482965
9.74048419806
9.49045631773
9.26630397833
9.05872884432
8.86388016067
8.68249126129
8.52012831437
8.38882139419
8.31027767167
8.3218425199
8.48381423649
8.89081454575
9.73888388314
2.02661348223
5.21026162256
7.08967091176
8.77598160154
9.96600812275
10.8893104012
11.6276569168
12.2395107578
12.7789285217
12.9526778653
14.117985454
6.52764105167
243.034656431
69.5806566259
-280.89108994
-955.272219927
-1630.24793677
-2322.96793726
-2964.28132597
-3506.24126049
-3954.17980682
-4394.75994118
-4937.74854232
0
0
124.680179783
79.9248096084
-60.5644955681
-237.312545746
-400.620013994
-499.267018925
-502.355994483
-404.030800471
-246.109354705
-50.0020872667
168.277326272
24.2807438315
47.5046117028
35.6767442502
28.4284070996
36.908168279
37.8257919588
9.18109298184
11.3202814544
10.489710237
10.0627591816
9.72995274602
9.47867404594
9.27173857737
9.08883024094
8.91863234103
8.75680592132
8.60459037385
8.46877485966
8.36305440332
8.3107145539
8.34937921834
8.53057036763
8.94268208434
9.56468900493
3.65969942425
6.06916458844
7.61587482719
9.00093387527
9.97249580791
10.7168692109
11.3102537532
11.8042201114
12.2470400213
12.3687969882
13.6011402325
6.41503360785
225.481565472
1.51189839476
-511.927108283
-1336.31696014
-2117.11342999
-2848.80955592
-3463.89497974
-3911.97982749
-4207.18011283
-4469.31736871
-4756.73772872
0
0
405.127197356
480.822719808
420.814133426
290.668729948
130.840810275
-13.6861951877
-106.070891253
-128.279477169
-93.8409850505
-1.65473004947
146.173278694
22.561368644
46.8400191739
33.8987070682
24.629624004
29.9869674556
22.29713563
9.2630021061
10.9449725986
10.0924781059
9.68682788547
9.39553552798
9.19379465563
9.0365039099
8.89924062941
8.76898235381
8.64112831045
8.51744248553
8.40565748506
8.3205624857
8.28623974539
8.34024988258
8.52784658595
8.94146558491
9.39112398968
5.35344775507
7.09283379901
8.28796130051
9.32494100578
10.0374512894
10.5747975401
11.0094344971
11.3884543817
11.7618925902
11.8799636181
13.2444928468
6.29026779174
143.806701325
-120.063949708
-685.234895213
-1481.23657769
-2173.45660755
-2742.65143291
-3143.97501762
-3350.27024208
-3397.24327471
-3414.50217959
-3413.12573151
0
0
681.309598493
874.963401553
901.262384591
837.75190624
713.515562628
560.530979093
407.075651837
269.304847398
153.635460514
81.4636284421
114.63604273
21.2343403417
46.6278937767
32.6668633249
21.4882349226
23.7716834545
7.71399070609
9.33726740678
10.5412628659
9.64648142418
9.26657140637
9.02798598029
8.88570959813
8.78521009074
8.69816255271
8.61035002546
8.51723860286
8.42117183137
8.33058289398
8.26086996563
8.23642212509
8.29512842044
8.47978551982
8.89817570499
9.21848649347
7.16039991337
8.2707689961
9.09053577088
9.73489934116
10.1507117903
10.4542256033
10.7163299571
10.9815360119
11.3046643867
11.4495542828
12.810225203
6.06483516698
-70.846106727
-265.826907528
-530.387647888
-901.435955118
-1171.08985345
-1315.85031254
-1330.92754468
-1232.1341811
-1070.60582362
-934.693144073
-757.203406992
0
0
819.862691495
1088.50835917
1172.26389619
1152.41920991
1051.68077415
895.433291777
705.448407598
496.70368812
290.607182392
119.975993745
81.9837331072
20.2823262967
46.363814663
31.7662708445
18.8534252911
18.2934057664
-5.87483962025
9.36991487137
10.0714913396
9.13596186378
8.79636669172
8.6262263145
8.55506229816
8.5190291334
8.48682692946
8.44385110473
8.38608287372
8.31654389708
8.24415083992
8.18445880387
8.16175386474
8.21480941935
8.38801227397
8.81686252789
9.0435280734
9.15290585018
9.60808429318
10.0096294993
10.2126214728
10.2960407224
10.3402834821
10.415750897
10.5660349802
10.858179607
11.0770605524
12.6332385055
5.88377169639
-310.959986379
-410.469801508
-293.764482681
-131.700608977
117.540650462
473.309186539
892.677557811
1319.18695336
1701.42929942
2010.78540684
2346.31098947
0
0
814.334017278
1115.1351528
1231.0411189
1239.42947962
1158.73307774
1011.37569862
815.214859152
582.480140207
342.112720631
128.316741201
47.0080168773
19.4889566465
45.8585953982
30.967695484
16.5753775303
13.6201600718
-18.5674056909
9.32848032176
9.49319783601
8.54451907966
8.27207160284
8.19111842288
8.20414309028
8.24039213278
8.26742858742
8.27139069666
8.24933084314
8.20507715747
8.14781443213
8.09276337706
8.06354950432
8.09997199934
8.25144078382
8.69527225227
8.86156409426
11.4534150686
11.1238115426
11.0318472338
10.7356573603
10.4509598156
10.2116569046
10.0852493809
10.1149183956
10.3882680506
10.7294714376
12.8712991372
5.8422723284
-518.661145785
-550.467493149
-168.999531062
420.634472611
1085.55516432
1844.48561442
2612.25894094
3314.54212725
3915.61937066
4427.12937291
4930.11508723
0
0
727.143655873
1032.89983567
1166.44322908
1195.86483499
1135.83606096
1007.10978551
824.603991379
596.881995113
354.930240776
128.457662908
14.3836319544
18.5784061451
44.9861100964
30.0101151969
14.5749910693
10.0311247063
-30.1396286935
9.17179006223
8.74964978746
7.85232508406
7.68892979553
7.72315287872
7.83475219917
7.95123776519
8.04179415244
8.09469826886
8.1087124805
8.08862646795
8.0436830465
7.98820409609
7.94427901474
7.95189831332
8.0673034025
8.52475446057
8.66765508582
14.2613913863
12.849616074
12.1311649766
11.2726803712
10.5876045547
10.0417343905
9.69604558902
9.59126210801
9.8351969126
10.3119792009
13.3031878918
6.00007580532
-674.216730211
-609.723917107
-99.2118809001
743.530508726
1610.97539242
2539.50318763
3423.84079545
4211.52913253
4913.11104045
5585.62056173
6285.98494323
0
0
625.188445268
924.318218748
1068.63606712
1115.60571242
1077.15185946
971.659365477
812.069216981
603.497137273
374.695784186
144.455407434
-8.52155866615
17.0763091264
43.7723732796
28.5696104176
12.8063759729
8.01180689489
-39.9880579562
8.84928010302
7.80917419145
7.0835570946
7.07995453644
7.25139940783
7.46965747854
7.66867930771
7.82261120434
7.92316379141
7.97125377163
7.9725806949
7.93604095336
7.87421375323
7.80613930973
7.76935604837
7.82525275139
8.27550613922
8.45883247363
17.965661554
14.784308713
13.2764142461
11.7696543743
10.6681128604
9.79562993481
9.2112664282
8.94856081228
9.11526756956
9.66533245293
13.281407666
6.29264717195
-784.920320858
-524.606194991
0.704626002802
904.498374765
1712.37280313
2504.27411155
3178.11697471
3739.40060485
4275.21029709
4921.47193414
5828.05572899
0
0
551.201851501
842.778662661
995.113604447
1057.48636767
1040.41813935
959.881042825
827.461194819
646.004820501
438.830508809
201.887365669
-2.77558684944
14.2320520903
42.3631890479
26.2105187138
11.2325076302
8.20819094865
-45.0239578537
7.76609758162
6.22422038913
5.93381801135
6.21388052273
6.59805772791
6.97499377595
7.29442864662
7.53969616923
7.7083842152
7.80546754575
7.83895764075
7.81846731528
7.75537165205
7.66540034953
7.58127262113
7.56619738624
7.98086454503
8.46512250301
23.2148525976
16.934702406
14.4322459924
12.2188101089
10.674017108
9.45824414921
8.60625518129
8.14672806416
8.13893448708
8.5893635859
11.7376756122
6.35514548535
-860.524212335
-289.056478824
124.816485183
861.054575607
1337.41698775
1711.93840047
1899.48427208
1959.89672369
2054.38523726
2435.23576252
3256.16954259
0
0
522.866019732
811.135042259
970.500239418
1046.62798133
1049.42715497
994.765261276
893.736809203
747.412844649
572.574523475
324.455663472
74.8425732221
9.24308370617
40.8291260604
22.2298060464
9.54007022056
11.2500126386
-49.0332010761
12.8324406429
10.3155171189
10.148725627
10.3631769751
10.6687321272
10.9699949522
11.2239047034
11.4129248549
11.5279676273
11.566706801
11.5281477979
11.4118478759
11.216390293
10.9391410006
10.5835277849
10.1667115027
9.95383094005
10.493439305
34.6513392232
18.6013499848
15.1925723727
12.3394606537
10.3857102062
8.85467690493
7.74388694317
7.08492142042
6.82284667839
6.9680657179
7.65507181678
4.94177346898
-925.939936431
-25.1219408878
85.780900433
429.743409841
427.629542965
332.519034719
110.818000218
-116.068196154
-213.86776402
-171.288012968
-242.058869255
0
0
537.948158337
827.086195982
992.321754496
1080.50597433
1102.29154657
1074.55315419
1008.77858509
906.03583471
783.225346475
550.928490998
354.722452261
3.17413894099
37.8885847319
16.197138341
8.41601314532
11.7952110431
-12.9824389961
23.128013896
36.234095077
37.1873127823
35.139826175
33.4934508839
32.2231615101
31.3248337975
30.7071553233
30.266617191
29.9201113826
29.6162881065
29.3240747395
29.0593133992
28.8870431237
29.0952378311
29.8882461365
34.0268519044
38.6777451175
34.1036392687
22.0524342204
17.0182053007
13.5168984368
10.9172371832
8.83597539813
7.22360127101
6.12682072654
5.30001018787
4.62565052882
0.0170926776624
-1.05702191169
-1028.42237147
114.835359723
-399.347710629
-625.747547768
-901.203401202
-1074.13737122
-1061.60280223
-810.19269473
-384.236640406
227.899903615
1203.94567145
0
0
573.821118922
862.654837108
1030.4215326
1127.49994887
1166.5913283
1162.97193807
1136.16707841
1102.36429818
1106.39138128
1014.38125589
1115.4239683
30.2241633146
30.0050450184
-3.34078370875
-7.38184044297
1.60018402796
-4.32889528804
14.473260978
31.606274119
36.0281722421
37.2694129744
38.1343571522
38.8024038526
39.3188815054
39.6966431864
39.9035331178
39.9234659388
39.751712289
39.3817928191
38.8291789415
38.1233021717
37.4556525077
36.8745195672
37.6999479441
35.2494238907
21.5319821187
13.3924559393
9.11658071301
6.38908587024
4.61396375283
3.40613346232
2.6531612001
2.46473948674
2.49090280988
2.71183689379
-5.6659884842
-4.62964057086
-1051.81571384
-230.500320139
-1377.95264512
-1923.89462701
-1766.46976005
-952.244412744
116.877022529
946.370109412
1337.51022428
1334.45989825
1167.02196325
0
0
561.094712848
830.064025336
985.481177297
1078.16962387
1126.21870157
1151.36920411
1198.4765368
1326.11380523
1613.81732862
1765.25105494
2239.5038338
205.881946004
132.714776253
117.669854286
111.055195305
109.450957197
101.070623375
86.5515411265
72.9548098622
64.3207585867
58.0461977491
54.2317006798
52.0246824023
50.7888085946
50.1889366296
49.8628504325
49.6081026267
49.3045171905
48.8835236997
48.4232632608
48.2776390985
49.1198153732
51.6671459944
58.4422436776
67.3486314613
67.3282467849
55.886708878
43.7592284096
32.2009213088
21.8589130374
12.9257256827
5.4442485994
-0.174080496876
-4.6380384034
-9.54634898297
-42.1569351897
-79.4204109061
-3606.82306361
-4352.94850841
-2408.63082231
-935.555559375
-38.9678743794
346.701767801
595.76214753
731.322920037
792.159474739
743.976374662
570.963974073
0
0
334.339922206
534.148216405
652.095181049
724.269196937
772.603989539
834.247774907
959.178480904
1218.84695142
1670.03385928
1957.9886572
1919.5864401
399.339180601
50.593193589
438.031293861
517.917758937
295.019400746
-248.384421065
-800.468782316
-1217.79446103
-1648.28372191
-2129.73472628
-2643.46888114
-3183.68390341
-3779.57398841
-4417.4373723
-5076.09326807
-5733.36940164
-6366.48165708
-6954.11977153
-7474.29761343
-7908.1458501
-8237.22126764
-8478.25028612
-8684.73769193
-8980.38003982
-9274.99989463
-9316.0618277
-9039.29094424
-8454.23527371
-7625.12610342
-6621.28986528
-5539.37209748
-4501.80917037
-3717.93999519
-3377.29603576
-3501.49234313
-3920.0687046
-4255.31307158
-2995.78851815
-1550.37046402
-1015.705007
-314.486418885
111.511050509
355.394227309
430.61399662
435.207427283
391.973398355
312.757137127
0
0
-108.183443152
-25.5534817344
50.7573909322
101.325981964
118.820941876
98.7981569826
5.27533449692
-246.468730249
-679.112301716
-500.067394186
3737.04586483
8850.16986296
10481.1264717
10178.3781422
9389.33209916
8724.72633723
8285.64276929
7978.56328377
7739.13652035
7457.9421442
7096.78890829
6675.94140496
6215.91346457
5767.86604597
5335.8287413
4916.5996039
4501.81887129
4081.62547809
3641.8702278
3166.35256451
2628.52100185
1995.90572576
1218.7796004
232.877089877
-997.783553208
-2356.39522637
-3721.83524793
-5110.50715295
-6515.02934268
-7949.29951627
-9422.32301319
-10952.4858959
-12524.1218671
-14095.2545025
-15396.112097
-15688.9146673
-13905.4552072
-11757.3771355
-9420.7043282
-7194.72142732
-5669.50961077
-4263.31177107
-3103.54309876
-2153.59786365
-1435.09266059
-887.832686373
-514.859104164
-268.720183589
0
)
;

boundaryField
{
    inlet
    {
        type            calculated;
        value           uniform 0;
    }
    outlet
    {
        type            calculated;
        value           uniform 0;
    }
    bottomWall
    {
        type            calculated;
        value           uniform 0;
    }
    topWall
    {
        type            calculated;
        value           uniform 0;
    }
    frontAndBack
    {
        type            empty;
    }
}


// ************************************************************************* //
