/*--------------------------------*- C++ -*----------------------------------*\
| =========                 |                                                 |
| \\      /  F ield         | OpenFOAM: The Open Source CFD Toolbox           |
|  \\    /   O peration     | Version:  2512                                  |
|   \\  /    A nd           | Website:  www.openfoam.com                      |
|    \\/     M anipulation  |                                                 |
\*---------------------------------------------------------------------------*/
FoamFile
{
    version     2.0;
    format      ascii;
    arch        "LSB;label=32;scalar=64";
    class       volScalarField;
    location    "1";
    object      topOSensas1;
}
// * * * * * * * * * * * * * * * * * * * * * * * * * * * * * * * * * * * * * //

dimensions      [0 0 0 0 0 0 0];

internalField   nonuniform List<scalar> 
1440
(
0
-1.18050339667e-13
-2.03868496317e-13
-2.92916581707e-13
-4.19477305515e-13
-6.36992294663e-13
-1.02507394884e-12
-1.71052007603e-12
-2.89736580754e-12
-4.90960926096e-12
-8.24660324513e-12
-1.36429995485e-11
-2.21050296814e-11
-3.48503622526e-11
-5.29748976551e-11
-7.66810020362e-11
-1.039211211e-10
-1.28792752643e-10
-1.41168284291e-10
-1.29747955198e-10
-8.69047129197e-11
-1.15202630015e-11
9.12936792463e-11
2.12136287153e-10
3.39617604211e-10
4.62321796497e-10
5.70054286109e-10
6.54288245252e-10
7.08059117664e-10
7.25810265592e-10
7.03801660191e-10
6.41559238216e-10
5.44225040352e-10
4.2443721855e-10
3.01171742969e-10
1.937743353e-10
1.13846557605e-10
6.19249552234e-11
3.15702006978e-11
1.521949741e-11
6.98872486289e-12
3.09287205835e-12
1.35997398096e-12
6.39113273934e-13
3.58072981166e-13
2.49094086596e-13
1.96012829046e-13
1.55109492198e-13
1.15894571143e-13
8.01351405795e-14
4.38568015656e-14
0
0
0
0
0
0
0
0
0
0
-1.19866919691e-13
-2.01881704395e-13
-2.90768533576e-13
-4.19177916316e-13
-6.40570761714e-13
-1.03628961954e-12
-1.73736939164e-12
-2.95636280633e-12
-5.03390985489e-12
-8.50132117306e-12
-1.4153233781e-11
-2.31055996359e-11
-3.67739778048e-11
-5.65499876999e-11
-8.2994408534e-11
-1.14270129635e-10
-1.44016509126e-10
-1.6039688287e-10
-1.49841334604e-10
-1.0329548059e-10
-1.96015643263e-11
9.51672876812e-11
2.30155399746e-10
3.72414708898e-10
5.09147560309e-10
6.29092227135e-10
7.22949280888e-10
7.83140603964e-10
8.03487758748e-10
7.79538671772e-10
7.10191038553e-10
6.00602667279e-10
4.64886221029e-10
3.2528290958e-10
2.04969134851e-10
1.17453151382e-10
6.22963495743e-11
3.09987233191e-11
1.45929753734e-11
6.54094185118e-12
2.82561478262e-12
1.22007845999e-12
5.76465270602e-13
3.37686940651e-13
2.49229862908e-13
2.03892487461e-13
1.63617101474e-13
1.21944014845e-13
8.48538556903e-14
4.75881555438e-14
0
0
0
0
0
0
0
0
0
0
-1.0585485397e-13
-1.85566932482e-13
-2.76809475903e-13
-4.11408214197e-13
-6.42908197697e-13
-1.05628360673e-12
-1.79088403241e-12
-3.07612309765e-12
-5.28583341804e-12
-9.01555302695e-12
-1.51813315985e-11
-2.51219916599e-11
-4.06623917884e-11
-6.38224481058e-11
-9.59696006089e-11
-1.35846167418e-10
-1.76295927041e-10
-2.01759587681e-10
-1.93552853488e-10
-1.39463814981e-10
-3.83199707862e-11
1.01678270406e-10
2.66532329061e-10
4.39958755001e-10
6.0622956109e-10
7.51853422773e-10
8.65949791857e-10
9.39703759083e-10
9.65665150898e-10
9.37863914114e-10
8.53751036967e-10
7.18319713349e-10
5.48683569732e-10
3.74198729426e-10
2.26628968077e-10
1.23658132676e-10
6.23412913526e-11
2.94696952938e-11
1.31383843695e-11
5.53413131051e-12
2.22092865633e-12
8.89165974835e-13
4.10161305973e-13
2.62732591481e-13
2.21158351618e-13
1.9701978518e-13
1.63673817833e-13
1.22039187612e-13
8.561265204e-14
4.89114110917e-14
0
0
0
0
0
0
0
0
0
0
-8.90973366417e-14
-1.67522249757e-13
-2.63674977656e-13
-4.08633331086e-13
-6.56594058215e-13
-1.09781692345e-12
-1.88375150876e-12
-3.26866607522e-12
-5.67585030724e-12
-9.7976335782e-12
-1.67356453875e-11
-2.8175078999e-11
-4.65762396414e-11
-7.49925972358e-11
-1.16232393459e-10
-1.70349547854e-10
-2.2942656322e-10
-2.71564515108e-10
-2.68755885961e-10
-2.03168768018e-10
-7.37774244188e-11
1.07481986014e-10
3.2127138078e-10
5.45711033919e-10
7.60227443388e-10
9.4773021205e-10
1.09487328259e-09
1.1909638733e-09
1.2265736894e-09
1.19320155455e-09
1.08562776124e-09
9.08033739135e-10
6.82093544631e-10
4.49394928873e-10
2.57192149553e-10
1.30439642059e-10
6.07766259527e-11
2.63407485171e-11
1.05633710257e-11
3.83555180078e-12
1.21245499323e-12
3.27518491222e-13
1.11679789075e-13
1.10413006561e-13
1.46187407202e-13
1.60639709753e-13
1.44851333624e-13
1.10590669193e-13
7.88921757976e-14
4.56476787453e-14
0
0
0
0
0
0
0
0
0
0
-7.63862279382e-14
-1.5501374796e-13
-2.58112168721e-13
-4.16681147837e-13
-6.86540388019e-13
-1.16474244629e-12
-2.01822603277e-12
-3.5334202484e-12
-6.19838283052e-12
-1.08339704116e-11
-1.87927565503e-11
-3.22387638691e-11
-5.45163438455e-11
-9.02149518609e-11
-1.44498092009e-10
-2.2010844635e-10
-3.09350272113e-10
-3.80690883458e-10
-3.89967540313e-10
-3.0968749259e-10
-1.39235265048e-10
1.03408430985e-10
3.90488425653e-10
6.91395074696e-10
9.78132706263e-10
1.22827553564e-09
1.42500099377e-09
1.55508548386e-09
1.60635775666e-09
1.56646859169e-09
1.42560216975e-09
1.18559537963e-09
8.74107972796e-10
5.52147856609e-10
2.93303612921e-10
1.34326942217e-10
5.56869639854e-11
2.07592490618e-11
6.52974782071e-12
1.32170604367e-12
-2.41777128111e-13
-4.78268603761e-13
-3.23172595069e-13
-1.20699643551e-13
2.38170111416e-14
9.48543012617e-14
1.07909314089e-13
8.87868739827e-14
6.60893895349e-14
3.91721731412e-14
0
0
0
0
0
0
0
0
0
0
-6.90715911039e-14
-1.49127706613e-13
-2.60154690325e-13
-4.3415685813e-13
-7.29701054226e-13
-1.25200897686e-12
-2.18636879971e-12
-3.8575943225e-12
-6.83196519694e-12
-1.20878539689e-11
-2.12913474327e-11
-3.72193746789e-11
-6.4373296423e-11
-1.09483997389e-10
-1.81336140306e-10
-2.87735885656e-10
-4.24351403156e-10
-5.4748429717e-10
-5.85729205596e-10
-4.93823282664e-10
-2.70684628705e-10
5.67617287509e-11
4.47789689355e-10
8.58256251725e-10
1.24887089361e-09
1.58941064648e-09
1.85830924095e-09
2.03915876153e-09
2.11629126052e-09
2.07189636944e-09
1.88870690536e-09
1.56319648759e-09
1.12977893199e-09
6.78781787793e-10
3.27090131162e-10
1.29549565306e-10
4.44241807049e-11
1.16856979484e-11
6.6905109717e-13
-2.12334998866e-12
-2.170284122e-12
-1.52942727921e-12
-8.88614165865e-13
-4.2395152509e-13
-1.39972802407e-13
4.68213434222e-15
5.67620731799e-14
5.91810450664e-14
4.91758351104e-14
3.09573559752e-14
0
0
0
0
0
0
0
0
0
0
-6.60063841895e-14
-1.48296798567e-13
-2.67361780514e-13
-4.57245430269e-13
-7.80424692329e-13
-1.35146688825e-12
-2.37621706331e-12
-4.22264961027e-12
-7.54592339074e-12
-1.35059333865e-11
-2.41369585866e-11
-4.29540836455e-11
-7.58982462547e-11
-1.32524111605e-10
-2.26856057663e-10
-3.75437514552e-10
-5.84667365726e-10
-8.076279516e-10
-9.34760626601e-10
-8.79564825794e-10
-6.25747285511e-10
-2.07792551789e-10
3.13429259739e-10
8.70708697431e-10
1.40558578908e-09
1.87508327371e-09
2.25047630117e-09
2.51134230321e-09
2.63816853515e-09
2.60660697242e-09
2.38910354988e-09
1.9725894572e-09
1.39717535042e-09
7.922481301e-10
3.36760263166e-10
1.07122519818e-10
2.37068966187e-11
-1.99201940439e-12
-7.36571926064e-12
-6.59319670225e-12
-4.58950419424e-12
-2.82241828185e-12
-1.57798750056e-12
-7.93629465609e-13
-3.40867165948e-13
-1.06699834216e-13
-6.38783938353e-15
2.30539684063e-14
2.9020036738e-14
2.1555697372e-14
0
0
0
0
0
0
0
0
0
0
-6.55274635143e-14
-1.50398064241e-13
-2.76985924622e-13
-4.82165031583e-13
-8.33274638996e-13
-1.45509417119e-12
-2.57543794852e-12
-4.60843028144e-12
-8.30507187661e-12
-1.50235082623e-11
-2.72073191293e-11
-4.92126528927e-11
-8.86804217159e-11
-1.58677054124e-10
-2.80301380693e-10
-4.83707911192e-10
-7.98683062908e-10
-1.20500782192e-09
-1.56933558646e-09
-1.71608467711e-09
-1.55524688963e-09
-1.10725087632e-09
-4.62346913139e-10
2.69672331205e-10
9.93992717095e-10
1.64379115432e-09
2.17770667412e-09
2.56985413603e-09
2.79786138946e-09
2.8326121831e-09
2.63678924179e-09
2.18515067487e-09
1.51879048452e-09
8.04680356007e-10
2.8641115299e-10
5.58873335038e-11
-9.79472175001e-12
-2.12117194891e-11
-1.78057421543e-11
-1.21249946661e-11
-7.49233645075e-12
-4.34568860828e-12
-2.3834099692e-12
-1.22553982433e-12
-5.76965204612e-13
-2.38530230157e-13
-8.12701100727e-14
-1.95287894822e-14
5.61464241916e-15
1.09207815036e-14
0
0
0
0
0
0
0
0
0
0
-6.62201166674e-14
-1.53567694943e-13
-2.86769140705e-13
-5.05965070277e-13
-8.83938205882e-13
-1.55613377863e-12
-2.77281242814e-12
-4.9951649453e-12
-9.07252693854e-12
-1.65686119354e-11
-3.03580380312e-11
-5.5702801216e-11
-1.02137746303e-10
-1.86817619755e-10
-3.39655280172e-10
-6.09704855097e-10
-1.06639541831e-09
-1.76579222459e-09
-2.61151763126e-09
-3.2831293912e-09
-3.49425560394e-09
-3.18910162749e-09
-2.49275423e-09
-1.58892194524e-09
-6.38698447156e-10
2.47254267702e-10
1.00476235431e-09
1.5999755064e-09
2.01096339944e-09
2.21131451736e-09
2.16270781973e-09
1.83172304373e-09
1.25073633538e-09
5.95496695964e-10
1.36346904729e-10
-3.40593191342e-11
-5.83772200189e-11
-4.63914531898e-11
-3.06529898486e-11
-1.86605062841e-11
-1.0833463817e-11
-6.07313942809e-12
-3.292127031e-12
-1.7145292087e-12
-8.4690891837e-13
-3.91021131471e-13
-1.68492323394e-13
-6.90717923013e-14
-2.14457695349e-14
-1.23775696151e-15
0
0
0
0
0
0
0
0
0
0
-6.7081871012e-14
-1.56424363724e-13
-2.95093335379e-13
-5.26592833447e-13
-9.29310311982e-13
-1.64931234937e-12
-2.95875448868e-12
-5.36455482305e-12
-9.81187469716e-12
-1.80662583633e-11
-3.34307017371e-11
-6.20842953863e-11
-1.15535263763e-10
-2.15348882591e-10
-4.01453699008e-10
-7.46087743036e-10
-1.37340977463e-09
-2.46844790755e-09
-4.06372780878e-09
-5.66245471874e-09
-6.62743892369e-09
-6.72834687797e-09
-6.1183254091e-09
-5.08866113704e-09
-3.9027160855e-09
-2.74027888354e-09
-1.70191827342e-09
-8.33183154925e-10
-1.50799118951e-10
3.34083406464e-10
5.99966715573e-10
6.18969208624e-10
4.03103395996e-10
7.91895816896e-11
-1.3617816182e-10
-1.66448219635e-10
-1.22050057502e-10
-7.70908371949e-11
-4.55843973521e-11
-2.60170562549e-11
-1.45190621128e-11
-7.95922686413e-12
-4.28331276031e-12
-2.2520145129e-12
-1.14792784688e-12
-5.63892277371e-13
-2.68560636646e-13
-1.26100947205e-13
-5.26261963438e-14
-1.52571877388e-14
0
0
0
0
0
0
0
0
0
0
-6.7494533493e-14
-1.58085170379e-13
-3.00945407126e-13
-5.42774983316e-13
-9.67355450974e-13
-1.73079094592e-12
-3.12553598923e-12
-5.70061540731e-12
-1.04893449941e-11
-1.94435334722e-11
-3.62644345873e-11
-6.79947776963e-11
-1.28041386845e-10
-2.4231787938e-10
-4.60989127549e-10
-8.81188757709e-10
-1.68987039836e-09
-3.23367283389e-09
-5.75079483346e-09
-8.57997136056e-09
-1.06260765116e-08
-1.13913136927e-08
-1.10332411857e-08
-9.96634964818e-09
-8.58029203656e-09
-7.14337149107e-09
-5.80439318794e-09
-4.62492432532e-09
-3.61312114606e-09
-2.75299960912e-09
-2.02959162368e-09
-1.44640315655e-09
-1.0191202829e-09
-7.33790718406e-10
-5.20797558361e-10
-3.35237114522e-10
-1.97709165241e-10
-1.1182552506e-10
-6.19140748338e-11
-3.38815029134e-11
-1.84061834681e-11
-9.93847742991e-12
-5.32708605713e-12
-2.82472249215e-12
-1.47458148115e-12
-7.55319525424e-13
-3.81144304923e-13
-1.90739853319e-13
-8.82016421642e-14
-3.1392244848e-14
0
0
0
0
0
0
0
0
0
0
-6.715618278e-14
-1.58085690985e-13
-3.03789094427e-13
-5.5384737636e-13
-9.96911139099e-13
-1.79801957903e-12
-3.26737476945e-12
-5.99037334553e-12
-1.10759616711e-11
-2.06352239955e-11
-3.87100597721e-11
-7.30854540062e-11
-1.38819003076e-10
-2.65652918596e-10
-5.12948096446e-10
-1.00081531157e-09
-1.97608117163e-09
-3.94497223406e-09
-7.37484320349e-09
-1.14925194173e-08
-1.47510998114e-08
-1.63448748267e-08
-1.6396434884e-08
-1.54228606382e-08
-1.39344496631e-08
-1.22899285799e-08
-1.0690508112e-08
-9.21700128021e-09
-7.86901919882e-09
-6.59826230934e-09
-5.34201720174e-09
-4.06647909907e-09
-2.81778260746e-09
-1.73870089577e-09
-9.74610416926e-10
-5.24532783744e-10
-2.79201284588e-10
-1.48142558142e-10
-7.86401273276e-11
-4.18342978212e-11
-2.23141805512e-11
-1.19306554706e-11
-6.38667179378e-12
-3.41540231064e-12
-1.81878675275e-12
-9.61685746712e-13
-5.04785052651e-13
-2.62490249006e-13
-1.28110475731e-13
-4.97365468112e-14
0
0
0
0
0
0
0
0
0
0
-6.59576049422e-14
-1.56215954742e-13
-3.03386579959e-13
-5.59526776014e-13
-1.01740296949e-12
-1.84947190609e-12
-3.38033347504e-12
-6.22427896965e-12
-1.15493143035e-11
-2.15890926672e-11
-4.06445552044e-11
-7.70604027766e-11
-1.47134722796e-10
-2.83475694482e-10
-5.52337145093e-10
-1.09113938647e-09
-2.19217316388e-09
-4.48439335307e-09
-8.62761225465e-09
-1.38142126211e-08
-1.81737321237e-08
-2.06249710611e-08
-2.120945695e-08
-2.04887717242e-08
-1.90538892663e-08
-1.73339382478e-08
-1.55757693379e-08
-1.38796057476e-08
-1.22394734459e-08
-1.05781255871e-08
-8.78761388193e-09
-6.79852997481e-09
-4.69121982158e-09
-2.77680028437e-09
-1.43417166331e-09
-7.11645779769e-10
-3.58289465508e-10
-1.82963639386e-10
-9.4573860724e-11
-4.94001407194e-11
-2.60455431488e-11
-1.38499191348e-11
-7.42275835012e-12
-4.00504623629e-12
-2.17096995245e-12
-1.17813518086e-12
-6.37106086469e-13
-3.40262706286e-13
-1.71943385642e-13
-7.02160009694e-14
0
0
0
0
0
0
0
0
0
0
-6.38233033983e-14
-1.52307132566e-13
-2.99555770848e-13
-5.5963962645e-13
-1.02853818328e-12
-1.88431954714e-12
-3.4620765806e-12
-6.39632459582e-12
-1.1894757835e-11
-2.22700640949e-11
-4.19834486721e-11
-7.97121282911e-11
-1.52463109174e-10
-2.94413222639e-10
-5.75440482687e-10
-1.14170912218e-09
-2.30756180455e-09
-4.75925159709e-09
-9.25317511974e-09
-1.50202644589e-08
-2.00929825692e-08
-2.32348238566e-08
-2.43797830872e-08
-2.40540957646e-08
-2.28592118616e-08
-2.1250667839e-08
-1.94993229766e-08
-1.7718126568e-08
-1.58984322416e-08
-1.39437722024e-08
-1.17156405283e-08
-9.12413586692e-09
-6.28777911152e-09
-3.66370333703e-09
-1.82743873958e-09
-8.71618960965e-10
-4.26208114139e-10
-2.13113350617e-10
-1.08521849299e-10
-5.61120708423e-11
-2.94089394367e-11
-1.56132770072e-11
-8.39667982135e-12
-4.57413002978e-12
-2.52056915613e-12
-1.39877598837e-12
-7.74879369189e-13
-4.22378533669e-13
-2.18931911455e-13
-9.25853673431e-14
0
0
0
0
0
0
0
0
0
0
-6.04944372102e-14
-1.45938306115e-13
-2.91839384534e-13
-5.53762640792e-13
-1.02991516353e-12
-1.90202752294e-12
-3.51152393288e-12
-6.5039498679e-12
-1.21060889374e-11
-2.26630796441e-11
-4.26897895837e-11
-8.09481513955e-11
-1.54566192948e-10
-2.97838786466e-10
-5.805665483e-10
-1.14782637046e-09
-2.30877793943e-09
-4.73006536904e-09
-9.14282686728e-09
-1.48676592337e-08
-2.00835438483e-08
-2.35651718759e-08
-2.51494508321e-08
-2.52604661534e-08
-2.44365918068e-08
-2.31064635904e-08
-2.15344125814e-08
-1.98338486152e-08
-1.79954535228e-08
-1.59176891353e-08
-1.34550700177e-08
-1.0519955876e-08
-7.26411423154e-09
-4.22643452422e-09
-2.08938272999e-09
-9.82747162456e-10
-4.75503224909e-10
-2.3592551781e-10
-1.1948856122e-10
-6.15808441517e-11
-3.22436100712e-11
-1.71494115929e-11
-9.27373213434e-12
-5.10394211852e-12
-2.85662142389e-12
-1.61696415407e-12
-9.14158629834e-13
-5.06608215825e-13
-2.67966118064e-13
-1.16448156147e-13
0
0
0
0
0
0
0
0
0
0
-5.54684723056e-14
-1.36369966318e-13
-2.79444202581e-13
-5.41158418514e-13
-1.0209361431e-12
-1.90222986107e-12
-3.52870328131e-12
-6.54794393217e-12
-1.21857235699e-11
-2.27741858838e-11
-4.277791332e-11
-8.08024599233e-11
-1.53528217299e-10
-2.93976582308e-10
-5.68365621485e-10
-1.11152741499e-09
-2.20244465581e-09
-4.4175453557e-09
-8.35042687922e-09
-1.34371582089e-08
-1.81923883945e-08
-2.15595140572e-08
-2.33223525123e-08
-2.37726133746e-08
-2.33341785396e-08
-2.23643979033e-08
-2.10922868784e-08
-1.96188689466e-08
-1.79359586337e-08
-1.59520868216e-08
-1.35391113226e-08
-1.06306326859e-08
-7.39151060359e-09
-4.35053707306e-09
-2.17823660771e-09
-1.03191720524e-09
-5.01700857758e-10
-2.49768985404e-10
-1.26845711691e-10
-6.55499742067e-11
-3.44365694142e-11
-1.84030797949e-11
-1.00232788559e-11
-5.57539056577e-12
-3.16637277917e-12
-1.82414683486e-12
-1.04951368219e-12
-5.89773182275e-13
-3.17363070074e-13
-1.41125839668e-13
0
0
0
0
0
0
0
0
0
0
-4.80727526068e-14
-1.22683736178e-13
-2.61425227329e-13
-5.20984307432e-13
-1.00102436552e-12
-1.88493620562e-12
-3.51491980113e-12
-6.53254060854e-12
-1.21446509685e-11
-2.26301860369e-11
-4.23122937213e-11
-7.94317801866e-11
-1.49742445895e-10
-2.83853596178e-10
-5.41655741449e-10
-1.04098824377e-09
-2.01360847769e-09
-3.90146520593e-09
-7.10308913021e-09
-1.11801184788e-08
-1.5058416142e-08
-1.79345688369e-08
-1.95898776161e-08
-2.01942530043e-08
-2.00443965697e-08
-1.94075593829e-08
-1.84623503719e-08
-1.72901813446e-08
-1.58859891748e-08
-1.41791413744e-08
-1.20742742095e-08
-9.53390264611e-09
-6.71105539987e-09
-4.04586725962e-09
-2.09356053144e-09
-1.01869205778e-09
-5.04373331972e-10
-2.54364068664e-10
-1.30434985767e-10
-6.79308824164e-11
-3.59348377444e-11
-1.93391938775e-11
-1.06198288032e-11
-5.96894728928e-12
-3.43481217961e-12
-2.00931463141e-12
-1.17358815162e-12
-6.6747970832e-13
-3.64680284016e-13
-1.65533280907e-13
0
0
0
0
0
0
0
0
0
0
-3.76879413202e-14
-1.04148671764e-13
-2.37133204881e-13
-4.92792279448e-13
-9.70157347347e-13
-1.8510655388e-12
-3.47322396302e-12
-6.46567543773e-12
-1.20021213855e-11
-2.2276822954e-11
-4.14015885156e-11
-7.70974350239e-11
-1.43853855495e-10
-2.69114104145e-10
-5.04806675163e-10
-9.48430557191e-10
-1.77857298655e-09
-3.29686843325e-09
-5.72358849912e-09
-8.74267148901e-09
-1.16477329281e-08
-1.38815044369e-08
-1.52547565013e-08
-1.58499806259e-08
-1.58568613912e-08
-1.54601038447e-08
-1.47891969443e-08
-1.39059259687e-08
-1.28096072085e-08
-1.14533437662e-08
-9.77702620628e-09
-7.76928281447e-09
-5.55720586649e-09
-3.46253531163e-09
-1.88096439294e-09
-9.55599139565e-10
-4.87118440214e-10
-2.50781266188e-10
-1.30575630206e-10
-6.88094697303e-11
-3.67496994307e-11
-1.99454485928e-11
-1.10446637185e-11
-6.2656219597e-12
-3.64516746501e-12
-2.15915052582e-12
-1.27706261544e-12
-7.34049795251e-13
-4.06595418042e-13
-1.88048782607e-13
0
0
0
0
0
0
0
0
0
0
-2.41355561829e-14
-8.08183050875e-14
-2.06916422863e-13
-4.57295913542e-13
-9.29671653305e-13
-1.8032426607e-12
-3.40909278144e-12
-6.3592977158e-12
-1.17849691822e-11
-2.17755281711e-11
-4.01885318525e-11
-7.413594881e-11
-1.36671070038e-10
-2.51748675702e-10
-4.62873055283e-10
-8.47192575708e-10
-1.53423813383e-09
-2.71138839376e-09
-4.48140066165e-09
-6.62940572211e-09
-8.71223880899e-09
-1.03601637586e-08
-1.14230174039e-08
-1.1931600391e-08
-1.20006163783e-08
-1.17524564537e-08
-1.12777702354e-08
-1.06225957927e-08
-9.79040864116e-09
-8.75444071431e-09
-7.48289349409e-09
-5.9821379909e-09
-4.35175400718e-09
-2.81007198192e-09
-1.61239723693e-09
-8.63353440262e-10
-4.56339434096e-10
-2.41118370822e-10
-1.27977824963e-10
-6.84239864783e-11
-3.69526464708e-11
-2.02332799002e-11
-1.12879615412e-11
-6.44903621303e-12
-3.78051230898e-12
-2.2590452862e-12
-1.34915855672e-12
-7.82743059301e-13
-4.38896460426e-13
-2.06381124379e-13
0
0
0
0
0
0
0
0
0
0
-8.26912740154e-15
-5.43747082778e-14
-1.73082068462e-13
-4.17408009375e-13
-8.83343673181e-13
-1.74685658447e-12
-3.3313173632e-12
-6.2297449609e-12
-1.15266586025e-11
-2.11991255235e-11
-3.88371445688e-11
-7.0923840808e-11
-1.29067483063e-10
-2.33811216373e-10
-4.20756002339e-10
-7.49103587624e-10
-1.30917069542e-09
-2.21145435364e-09
-3.49737586296e-09
-5.02253855988e-09
-6.50871740367e-09
-7.71192640036e-09
-8.51780899073e-09
-8.93063242531e-09
-9.01767552074e-09
-8.85882293175e-09
-8.5169946464e-09
-8.02663248603e-09
-7.3940435035e-09
-6.60650373262e-09
-5.65082294026e-09
-4.54236848599e-09
-3.35724116219e-09
-2.24063279887e-09
-1.3525384646e-09
-7.63290993497e-10
-4.19357138861e-10
-2.27986981791e-10
-1.23595999134e-10
-6.71240526585e-11
-3.66665813842e-11
-2.02390633951e-11
-1.13528539099e-11
-6.50986636717e-12
-3.8276252089e-12
-2.29593512814e-12
-1.37935061849e-12
-8.06636972816e-13
-4.56800474391e-13
-2.17544513414e-13
0
0
0
0
0
0
0
0
0
0
7.20968160236e-15
-2.91775269703e-14
-1.41048705794e-13
-3.79467931842e-13
-8.38651599798e-13
-1.69127003302e-12
-3.25297580326e-12
-6.09807509362e-12
-1.12660433499e-11
-2.06268051458e-11
-3.75186141806e-11
-6.78415499317e-11
-1.21889394229e-10
-2.17187148273e-10
-3.82621927765e-10
-6.63068608277e-10
-1.12057265889e-09
-1.81967439295e-09
-2.77261606363e-09
-3.88002968061e-09
-4.96226023074e-09
-5.85535009993e-09
-6.47303558143e-09
-6.80727278433e-09
-6.89668394167e-09
-6.79344515255e-09
-6.54153540554e-09
-6.16707088057e-09
-5.67777762901e-09
-5.06959467833e-09
-4.34008800736e-09
-3.5077267461e-09
-2.63038506288e-09
-1.80607006557e-09
-1.13721513408e-09
-6.71549775151e-10
-3.827546828e-10
-2.14012226537e-10
-1.18474716367e-10
-6.53269861201e-11
-3.6058871337e-11
-2.00294438947e-11
-1.12644575277e-11
-6.45533441805e-12
-3.78551014778e-12
-2.26502727112e-12
-1.36180846499e-12
-8.01002487317e-13
-4.56167716137e-13
-2.18308206525e-13
0
0
0
0
0
0
0
0
0
0
1.72156170696e-14
-1.27459768642e-14
-1.19786664634e-13
-3.53667210792e-13
-8.07160117345e-13
-1.65007450661e-12
-3.19136404575e-12
-5.98924433592e-12
-1.10448148639e-11
-2.01375811726e-11
-3.63955940132e-11
-6.52376283758e-11
-1.15878900447e-10
-2.03439224394e-10
-3.51645354569e-10
-5.94952036254e-10
-9.76589108649e-10
-1.53474411366e-09
-2.26827765049e-09
-3.10571987701e-09
-3.92531573748e-09
-4.61242487383e-09
-5.10074371165e-09
-5.37708236973e-09
-5.46331288807e-09
-5.39423745482e-09
-5.2014484957e-09
-4.90534916784e-09
-4.51421541465e-09
-4.02900480048e-09
-3.45311657748e-09
-2.80536905578e-09
-2.13067190156e-09
-1.49781410058e-09
-9.75537133003e-10
-5.97658588981e-10
-3.51559052034e-10
-2.01494010759e-10
-1.13625717799e-10
-6.34815106207e-11
-3.53387736139e-11
-1.97116138595e-11
-1.10847128796e-11
-6.32509228521e-12
-3.68052366242e-12
-2.18284085272e-12
-1.30505834305e-12
-7.68910396591e-13
-4.37106029747e-13
-2.07335263833e-13
0
0
0
0
0
0
0
0
0
0
1.58539726583e-14
-1.30625474426e-14
-1.18421190222e-13
-3.50109148993e-13
-8.00090332039e-13
-1.63616673663e-12
-3.16246881862e-12
-5.92561427366e-12
-1.08991142184e-11
-1.97978087706e-11
-3.5600556984e-11
-6.33874717556e-11
-1.11606277054e-10
-1.93718212073e-10
-3.29990602203e-10
-5.48186126967e-10
-8.8024106905e-10
-1.35015157913e-09
-1.95096541524e-09
-2.627344442e-09
-3.28967376818e-09
-3.85161415129e-09
-4.25944751735e-09
-4.49813697831e-09
-4.58039925903e-09
-4.53096523078e-09
-4.37399955008e-09
-4.12634155116e-09
-3.79639434981e-09
-3.38779077445e-09
-2.90684998457e-09
-2.37183491802e-09
-1.81947528714e-09
-1.30176047539e-09
-8.68856870006e-10
-5.46654160373e-10
-3.29188541895e-10
-1.92224422268e-10
-1.09920825067e-10
-6.20167098878e-11
-3.47355329244e-11
-1.94257691995e-11
-1.09123270305e-11
-6.19556917209e-12
-3.57359930434e-12
-2.09620643984e-12
-1.24129875462e-12
-7.28462035959e-13
-4.10137771446e-13
-1.90069860912e-13
0
0
0
0
0
0
0
0
0
0
5.66325703707e-15
-2.5972280818e-14
-1.31825388769e-13
-3.63188193634e-13
-8.11863155051e-13
-1.64469115378e-12
-3.16334414381e-12
-5.908473369e-12
-1.08393549242e-11
-1.96374704205e-11
-3.52047870883e-11
-6.24464281381e-11
-1.09412448871e-10
-1.88720158776e-10
-3.18909777955e-10
-5.24492562512e-10
-8.32144389928e-10
-1.25967963415e-09
-1.79801202844e-09
-2.3991913923e-09
-2.98794662677e-09
-3.49081924862e-09
-3.86014027008e-09
-4.08035966081e-09
-4.16017297353e-09
-4.11970636989e-09
-3.97965153322e-09
-3.75513686712e-09
-3.45455746247e-09
-3.08268796838e-09
-2.64703403644e-09
-2.16537893452e-09
-1.67051568358e-09
-1.20678512314e-09
-8.16114200487e-10
-5.20808212588e-10
-3.17613154541e-10
-1.87351621479e-10
-1.07951766948e-10
-6.12343136837e-11
-3.4415145348e-11
-1.92772443444e-11
-1.08253871747e-11
-6.13130851852e-12
-3.52039498496e-12
-2.0523490523e-12
-1.20793799074e-12
-7.05824087129e-13
-3.94281565692e-13
-1.79579383882e-13
0
0
0
0
0
0
0
0
0
)
;

boundaryField
{
    inlet
    {
        type            calculated;
        value           uniform 0;
    }
    outlet
    {
        type            calculated;
        value           uniform 0;
    }
    bottomWall
    {
        type            calculated;
        value           uniform 0;
    }
    topWall
    {
        type            calculated;
        value           uniform 0;
    }
    frontAndBack
    {
        type            empty;
    }
}


// ************************************************************************* //
