/*--------------------------------*- C++ -*----------------------------------*\
| =========                 |                                                 |
| \\      /  F ield         | OpenFOAM: The Open Source CFD Toolbox           |
|  \\    /   O peration     | Version:  2512                                  |
|   \\  /    A nd           | Website:  www.openfoam.com                      |
|    \\/     M anipulation  |                                                 |
\*---------------------------------------------------------------------------*/
FoamFile
{
    version     2.0;
    format      ascii;
    arch        "LSB;label=32;scalar=64";
    class       volScalarField;
    location    "1";
    object      topologySensas1;
}
// * * * * * * * * * * * * * * * * * * * * * * * * * * * * * * * * * * * * * //

dimensions      [0 5 -2 0 0 0 0];

internalField   nonuniform List<scalar> 
5760
(
0
-352.092328831
-305.67532764
-242.319346141
-186.584850691
-147.545600456
-119.810427498
-99.9093600661
-85.083591481
-73.664785404
-64.6949626736
-58.2651792955
-53.6418366155
-50.8861778233
-50.3113465837
-52.455399118
-58.229070152
-68.9949167047
-86.4545888369
-113.048129169
-155.792853207
-252.290991891
-496.872301947
-1152.73482142
-1965.91789431
-2527.53038066
-2772.69072335
-2811.3271506
-2751.6235134
-2658.8499151
-2565.69214392
-2473.28217349
-2377.79386461
-2282.16532049
-2192.23794053
-2113.57502356
-2047.04196868
-1988.5845254
-1933.19287689
-1877.58730869
-1819.31525268
-1756.85645502
-1691.20566069
-1624.54836299
-1558.83947056
-1495.52043477
-1435.58772404
-1379.77565966
-1328.62807249
-1282.51839296
-1241.68225199
-1206.26338993
-1176.36646772
-1152.10826782
-1133.66437367
-1121.31226712
-1115.47310496
-1116.75447153
-1125.9952726
-1144.30967067
-1173.11856156
-1214.15118611
-1269.42602306
-1341.12336981
-1431.08405439
-1539.83609832
-1665.26707614
-1801.10652672
-1935.58933872
-2051.23392833
-2127.90490758
-2151.24512785
-2121.76356353
-2052.64244775
-1958.65230421
-1851.03104824
-1737.28021842
-1621.69487065
-1506.6020027
-1393.17352441
-1281.93601473
-1173.05654917
-1066.52447886
-960.227003846
-850.321209834
-727.880205009
-579.340064707
-383.848489694
-111.727099643
276.520913726
823.500029509
1563.45681086
2493.82513242
3537.7473612
4537.80476507
5298.25143195
5667.86282721
5646.92612421
5588.13312418
5744.71651041
6068.62150555
6521.57091979
7015.40493649
7420.81535027
7674.07578633
7773.62810038
7722.31347724
7517.7335842
7147.13457814
6587.80110299
5810.23534529
4783.24985426
3479.94001455
1881.1645889
-27.623386339
-2265.74990757
-4863.86202597
-7901.48404017
-11695.7232855
0
0
-937.683928965
-1004.28614415
-955.525127141
-852.663790425
-747.088558952
-648.954140661
-563.356353229
-490.833874919
-430.622440387
-381.772917847
-343.368728778
-316.485706889
-300.687722695
-296.851333308
-306.933652255
-334.539605803
-385.921101707
-471.538611339
-608.34369142
-817.345068016
-1121.40294063
-1480.50153892
-1835.84240222
-2204.42641032
-2581.55503478
-2920.92509343
-3158.58095512
-3288.45497821
-3322.50478648
-3275.04827863
-3164.5029881
-3013.11114498
-2843.19478973
-2673.63305149
-2519.8700813
-2389.14976071
-2273.59551787
-2155.42949946
-2025.30184109
-1891.87884759
-1759.71410773
-1632.0227191
-1510.90891208
-1396.86965058
-1289.90281284
-1189.85693149
-1096.45045338
-1009.26320321
-927.819282006
-851.641221188
-780.254682161
-713.173558289
-649.865925136
-589.700312865
-531.871862395
-475.306293404
-418.53847148
-359.562677885
-295.653642664
-223.161101445
-137.291330994
-31.9122092128
100.533302537
268.918569344
482.914256575
751.875464887
1083.21079225
1480.47502941
1941.72471058
2458.59354387
3015.87985715
3594.12788957
4180.153358
4773.26731088
5378.066816
5999.38329255
6642.08686191
7310.68711715
8009.89208582
8745.00578729
9522.19012361
10348.6911991
11229.7575413
12174.1302005
13185.1546255
14260.1152856
15387.6322316
16543.4718662
17684.64899
18753.4657075
19677.1156409
20375.4614115
20767.3548875
20792.0052447
20452.129571
19875.8428923
19161.7060556
18654.279655
18332.5712331
17815.2995463
17012.0786278
15797.3080257
14142.4422251
12087.4861768
9682.35559709
6954.83748169
3929.9025219
637.43433788
-2875.91128942
-6536.05682257
-10231.6606306
-13804.7493637
-17042.6615301
-19668.2462182
-21323.0773622
-21536.474114
-19675.0172292
-15062.0381347
0
0
-904.926517113
-1150.99707015
-1213.60568072
-1167.52542833
-1081.94594852
-982.353645901
-883.685550634
-792.845412105
-713.071477648
-645.911406255
-591.655829608
-551.605818179
-526.381666809
-516.663709001
-523.477289157
-548.525004637
-594.654419334
-666.628512862
-773.283185074
-927.171565807
-1159.54827896
-1460.86184496
-1965.80599271
-2376.89434601
-2566.00251719
-2550.52493548
-2400.65279396
-2179.15019632
-1917.29448765
-1629.51185694
-1326.22522647
-1013.33415739
-692.264073449
-365.418173502
-36.9753946662
287.826691729
605.49616023
913.662845048
1212.88156476
1510.89163883
1806.88827014
2098.62390433
2388.63512058
2678.78852408
2970.90768868
3266.69420643
3567.41440515
3874.12075487
4187.7843628
4509.30293685
4839.50428097
5179.13821576
5528.86356369
5889.23195708
6260.66839335
6643.44895567
7037.67823122
7443.27234381
7859.95812965
8287.30643778
8724.81749066
9172.12044164
9629.25962372
10097.2283248
10578.6111339
11077.9347753
11601.5997783
12157.0194607
12750.5896064
13384.1932244
14048.8754113
14719.2558627
15367.8726451
15983.5827864
16563.8803001
17106.9223974
17611.6846699
18076.3142458
18498.4887459
18875.6417955
19205.5429225
19487.1662154
19721.1361637
19909.6603022
20057.9713752
20175.7335119
20275.8223756
20371.5384002
20469.9116036
20559.1361162
20590.3654357
20454.7723431
19960.211157
18859.1570511
17044.6695694
14714.8685133
11959.3882331
9560.41364482
7771.36433005
5992.46190152
4277.70055955
2507.40470005
661.126015329
-1235.76403153
-3135.2682706
-5006.65973937
-6820.65030975
-8551.12619588
-10168.5965926
-11636.4776045
-12909.3586987
-13931.8538017
-14641.9345176
-14976.4787057
-14876.1473074
-14267.2293061
-12917.3551401
-10249.6443874
0
0
-676.972601869
-996.09449271
-1149.73556884
-1180.21264805
-1147.7479407
-1082.9675956
-1005.82822927
-927.539940148
-854.4161683
-789.995093996
-736.035147352
-693.344156213
-663.154705792
-646.126034391
-642.877725397
-654.19692545
-681.304227699
-726.114141598
-792.625220696
-885.069186571
-1029.77660245
-1197.45955148
-1548.3825984
-1616.93519707
-1496.07214198
-1314.59768687
-1129.10799647
-938.109964603
-728.337520048
-492.652526564
-231.991142794
49.0965078405
344.593349428
645.024312925
936.757430596
1204.71049147
1448.37802874
1679.04393416
1904.25383393
2128.76123697
2355.69224675
2590.07002398
2833.36173987
3084.9142816
3341.38302024
3604.75349077
3875.40251979
4153.0603273
4437.56779476
4728.92022367
5027.28760591
5333.0316986
5646.72320098
5969.15910867
6301.38049771
6644.69115274
7000.67698893
7371.22548969
7758.54357527
8165.174518
8593.99259053
9048.28420473
9531.65230367
10047.9250919
10601.3561631
11196.9262701
11840.4033454
12538.2259553
13297.0982523
14122.8655887
15014.5118571
15948.8587465
16892.1768877
17829.1364922
18755.2884514
19665.9048569
20559.7361406
21435.991786
22294.3087287
23133.942675
23953.2896711
24749.4573627
25517.7871118
26251.3180789
26940.5777236
27573.0975889
28132.4266994
28597.0576948
28938.6142942
29118.4569451
29083.1483082
28765.0245809
28095.0724027
27013.4403429
25387.6731612
23026.5105209
18909.4475232
14739.3715286
11569.5860935
8309.58795561
5300.62571241
2461.50065746
-204.621131496
-2669.82135434
-4875.76887761
-6819.76885158
-8510.94120303
-9970.10826528
-11216.21787
-12257.7541962
-13087.5798753
-13675.3669668
-13967.6507666
-13896.0401624
-13395.8074125
-12415.8429033
-10817.5378464
-8370.75383048
0
0
-457.91740473
-778.923173886
-980.550826655
-1069.28191073
-1086.81125684
-1061.10243531
-1012.71436392
-954.725268222
-895.240610388
-839.173609116
-789.16683975
-746.492211945
-712.50792586
-687.884879062
-673.158160472
-668.813943735
-675.492868551
-694.041987616
-726.347871748
-771.484726032
-848.552928496
-897.062242561
-1113.39754487
-891.123121459
-719.502148805
-599.943880299
-527.855293834
-471.463928749
-409.513673255
-330.624573656
-230.314174458
-107.737908345
35.0360003108
190.177035348
341.283096707
463.988485149
551.597444508
616.743521007
669.933159686
718.369422207
767.247598137
818.543615432
873.123698831
931.437322554
995.425707462
1063.01281549
1133.76458437
1207.18650421
1282.65194073
1359.51901549
1437.17975473
1515.08317166
1592.73925527
1669.71562573
1745.63405114
1820.17202311
1893.07341212
1964.17153418
2033.42785202
2100.99407857
2167.27135836
2233.18753259
2299.3401019
2368.0429063
2442.34142994
2526.94130396
2629.61953958
2763.33648279
2949.27954146
3218.92176829
3608.22249875
4116.51656652
4694.714677
5304.07109928
5930.52791224
6564.73011159
7205.77462943
7855.64114478
8518.7257635
9201.06129763
9910.1561538
10654.9940335
11446.1827152
12296.3324944
13220.8531223
14239.0673015
15376.181297
16667.207118
18163.6934936
19944.1108731
22129.3100313
24906.8334562
28546.6601447
33233.2460542
37894.0803623
41420.6020526
38017.4577516
32609.3187957
28763.079509
24339.1723032
19681.9641524
14756.9894327
9733.12674291
4846.22676384
371.746738395
-3558.66454404
-6880.2079853
-9595.64951896
-11747.1225413
-13391.9968289
-14588.6044012
-15375.769601
-15764.3001011
-15740.6999602
-15275.1212756
-14310.5371688
-12621.1050152
-9900.23851326
0
0
-290.667561296
-580.573158274
-798.127460402
-923.316202639
-978.774195024
-985.923891049
-963.208071895
-923.877126381
-876.945828139
-828.339245336
-781.371709062
-738.281510299
-700.536980106
-668.897870277
-643.882634413
-625.732716353
-614.509510234
-609.9210641
-611.637859098
-614.510611367
-628.810156874
-575.872641798
-609.342656454
-79.7521126845
-25.8876475945
-2.70172392529
2.96123299157
4.97690912452
6.22416099992
7.6000816848
9.50200522753
12.2136556568
16.1032874645
21.3798142079
27.7838050275
30.9555449347
31.0169937513
29.9810457075
28.7129468937
27.5077698095
26.4950319332
25.654316265
24.962880776
24.4221142985
24.0268965362
23.6828965798
23.3629052132
23.0670521869
22.7971208259
22.5530548421
22.3329508835
22.1334407517
21.9499671909
21.7769030389
21.6075144004
21.4337678417
21.2459700384
21.0321796029
20.7772631679
20.461172436
20.0574657284
19.5113657405
18.7796046354
17.762391046
16.3131716986
14.160655559
10.8683023842
5.77670279876
-1.87896277436
-12.7218474963
-24.5978830867
-32.7667540923
-35.4206085855
-35.5385192966
-33.8197968047
-31.3163782768
-28.4850094421
-25.6281321483
-22.906856871
-20.4155127039
-18.2112565428
-16.3408875587
-14.8683032718
-13.8956303523
-13.5724057445
-14.118600313
-15.8609687776
-19.2321889393
-24.6456799849
-32.0666882299
-39.7609405802
-41.0057560709
-11.3803258042
151.25382474
461.068266767
11539.3857694
23576.319337
31268.3762889
36794.7488443
39029.54423
38668.2301208
35991.6592649
31375.9764009
25365.4928213
18646.6683053
11701.7177589
4945.67688414
-1307.06075986
-6838.62158674
-11509.6945686
-15251.6293738
-18031.2749601
-19826.4305631
-20630.9175928
-20460.5049125
-19334.7937089
-17080.9744185
-13311.7617855
0
0
-171.719568529
-419.104378779
-632.690476484
-776.661448451
-857.955316406
-890.327803253
-888.601202442
-864.954420972
-828.556811563
-785.921975159
-741.012593225
-696.945628046
-655.473079644
-617.604953672
-583.954575684
-554.643076839
-529.310903853
-506.782412836
-484.956118564
-456.059235889
-424.267854632
-322.659152684
-196.836377123
47.0249120044
41.7324554124
44.4318026968
39.9597406631
36.0275030556
33.1193015999
31.3235797581
30.584097543
30.8879778876
32.3455138881
34.9460799753
38.3918882868
35.8539178452
31.1266964955
27.4781097569
24.928779527
23.1133493965
21.8080648912
20.8363163147
20.0932344582
19.5212528518
19.0757377559
18.7044802918
18.3851436307
18.1071109255
17.8627395436
17.6457102599
17.4505738913
17.2725342459
17.1072673835
16.9507174749
16.7988572161
16.6474097227
16.4915198265
16.325340227
16.141476599
15.9301550456
15.6780992225
15.3666633424
14.9641046341
14.4237560413
13.6853150099
12.6451937545
11.1392610087
8.91288385093
5.65716909441
0.910609751316
-4.71351887505
-9.06151362606
-10.0189213137
-10.2245351207
-9.76795637466
-9.08938234615
-8.32011180538
-7.57001818034
-6.90136466203
-6.35422861486
-5.95452981309
-5.72325124149
-5.68533217282
-5.8781192344
-6.35726476178
-7.203770791
-8.53409608726
-10.5082709977
-13.3245998439
-17.1906741834
-22.1960506642
-28.1869025202
-33.0746708531
-28.6289686911
120.569048802
3442.70530962
4444.72036421
8644.97105687
14988.4342942
23093.6073376
31630.6505705
38748.5988933
42913.1866953
43684.0649221
41447.4827709
36590.9783316
29774.2917531
21709.376321
13045.1856448
4340.89172279
-3950.64818671
-11446.8034103
-17766.8165541
-22536.7988348
-25458.9661355
-26317.3567975
-24742.7801638
-19927.473117
0
0
-89.0017868201
-292.80991009
-491.457714814
-641.729961799
-739.137843332
-790.192582293
-805.496290615
-795.32169112
-768.340288961
-731.083169511
-688.199205126
-643.281757343
-598.516879039
-555.317795336
-514.519218446
-476.293820438
-440.122457934
-404.42431676
-366.230847593
-317.038479832
-258.358341109
-144.36911542
36.7528911884
61.0505121543
45.0965539147
43.2162841624
38.0917548054
34.4660123451
31.9913524178
30.7143251846
30.639869904
31.9128476783
34.8835798774
39.9431840677
47.5844172382
43.632387921
36.0025920487
30.6163648399
27.1933357991
24.8677376016
23.2409259804
22.0516503608
21.1541360606
20.4636294424
19.9210064183
19.4748971488
19.097635079
18.7733997655
18.4912451271
18.2427936348
18.0212767187
17.8210103967
17.6370304258
17.4647816013
17.2998160294
17.137472869
16.9725096873
16.7986369788
16.6078897536
16.3897239527
16.1293344497
15.8064812217
15.3862654102
14.8239006286
14.0523484756
12.9642590603
11.3934657578
9.07349685106
5.66236728556
0.385447365087
-6.33762646724
-12.0852326746
-11.7059559621
-11.3341364914
-10.5641471446
-9.78578088448
-8.99163730538
-8.23712890873
-7.56047545088
-6.99615661621
-6.57197954399
-6.31406690546
-6.25317743922
-6.43116673217
-6.90586622503
-7.75677073607
-9.09224316541
-11.0539317555
-13.8078647297
-17.5172207338
-22.2074704394
-27.809457873
-31.8409643207
-38.7539042924
60.7583787196
2664.04873039
1238.47787555
2046.70962002
3864.2413348
7062.25299572
12080.0451948
18983.5148835
26862.8722774
34286.4941724
40667.8734322
45045.2447204
46600.7461123
44989.8352371
40276.052193
32907.146886
23579.0519715
12909.198743
1522.77172622
-9623.22510861
-19509.4380293
-27108.3224105
-31111.9831257
-29008.5095456
0
0
-32.2610051482
-196.002954976
-374.417123368
-522.671845845
-628.828036463
-693.316509576
-722.53201853
-724.369358313
-706.458453342
-674.750859897
-634.579948153
-589.589838728
-542.412432285
-494.947749592
-448.359852953
-403.04304722
-358.574380865
-313.394809244
-264.447513159
-203.848444663
-132.696782968
-26.2201038218
153.187676207
53.4610841863
44.2008829952
41.2954067379
36.8713606247
33.8054493486
31.7649930776
30.8944265378
31.320263305
33.3754596099
37.761739831
45.8821463435
62.2473674209
57.0330197448
43.89977564
35.5962606555
30.8771835753
27.7725996793
25.6270512965
24.0611881224
22.8778421191
21.9621128195
21.2369110621
20.643742249
20.1473817861
19.7258161669
19.3635818997
19.0489195333
18.7724494962
18.5264273484
18.3042344849
18.0999648828
17.9080440681
17.7228407117
17.5382320356
17.3470647255
17.1404501031
16.906712028
16.629382132
16.2845326446
15.8399121106
15.2468512674
14.434332679
13.2913943243
11.6488432461
9.22111630531
5.62801819795
-0.49778763003
-8.85930375188
-16.0341804895
-12.3127418883
-10.938653652
-9.6184737959
-8.62539781347
-7.75436084969
-6.99320288548
-6.34264572865
-5.82031212392
-5.44711810178
-5.24788662493
-5.25455155377
-5.51090357848
-6.07716949972
-7.03532542215
-8.49515970201
-10.5988594691
-13.5178095469
-17.4523034516
-22.5477435449
-29.2914217269
-35.7393272391
-55.9436216894
15.4536549278
2170.64687588
1338.8922378
1022.86384874
1226.2347282
1959.95766021
3464.76790307
6271.26261622
10581.6230005
16192.9508621
22671.5816347
29531.8002551
36187.5711381
41941.2747688
46047.42716
47781.8787977
46665.0388803
42343.7396929
34469.9041143
23074.1523187
8917.66096931
-6404.38997761
-20882.6027326
-30268.6517698
0
0
5.83798188781
-123.107241155
-279.46335146
-420.386496699
-529.767946528
-603.411910026
-643.919464555
-656.642962452
-647.725968212
-622.440156246
-585.876580186
-541.879835281
-493.473090538
-442.965738797
-391.907356119
-341.050358084
-290.292616511
-238.436653653
-182.884201337
-117.090867217
-42.7924368003
48.1446185172
202.503307403
44.1795245198
42.9096838325
39.3207629148
35.6355076743
33.0398431868
31.3737705479
30.8434257299
31.6749731377
34.3588556962
39.9073715953
51.1550932668
83.2575761923
70.6471464664
43.745594196
32.3437470232
26.7056156707
23.0992863241
20.6195026715
18.8037009351
17.4221550587
16.3414145471
15.4757721461
14.7657722947
14.1733172536
13.6727513179
13.2454679097
12.8772806954
12.5570110752
12.275599953
12.0254725534
11.8000359094
11.5932442962
11.3991858316
11.2116446992
11.0235735256
10.8264485561
10.6090268017
10.3563419034
10.0464804737
9.65045053016
9.12334310859
8.3987418681
7.37431377477
5.89492249592
3.68515733645
0.392009501052
-6.04965669646
-17.4809298889
-23.3642186148
-13.2884638467
-10.9539957811
-9.13788935855
-7.96521483562
-7.01665337715
-6.23068886186
-5.58015904422
-5.0706634346
-4.71809219379
-4.5462986939
-4.58817063422
-4.88913600614
-5.51127552292
-6.53824666011
-8.08078903265
-10.2819185014
-13.3178330896
-17.4143120576
-22.7831297509
-30.198357241
-37.9005971266
-64.4547932037
-4.60893211686
1651.37246256
1682.92368447
1201.54537204
1152.79887604
1269.86151422
1537.97930249
2155.73173395
3362.46359653
5536.94661848
8740.13251443
12910.2818427
17924.4023205
23554.8164474
29460.8222574
35182.7942239
40209.0218229
44030.7079898
45962.9012993
45102.5793699
40368.1936814
30712.0502296
15380.4852946
-3679.37528575
0
0
30.3295870757
-69.4463999055
-203.94453177
-334.322612479
-442.791996575
-521.995462853
-571.389897107
-593.876315221
-593.835821154
-575.620705126
-543.791186209
-502.156934696
-453.936885698
-401.766027512
-347.58883318
-292.602902906
-237.196116366
-180.778045273
-121.553642226
-54.6023270231
17.32509687
91.2049137925
215.221699062
36.5218452079
41.4084516802
37.4496876646
34.401324842
32.1829073323
30.8159298525
30.5344725657
31.6273050285
34.677768398
40.7850202692
53.3225907038
94.4573641492
7.76719281746
6.12615340262
5.5284364221
5.48040654267
5.53208805001
5.61160431287
5.69476557728
5.77347309031
5.84506774586
5.90879252729
5.9642365114
6.01157775668
6.0514138143
6.08449483482
6.11156569419
6.13329191905
6.15022799367
6.16280464608
6.1713230769
6.17594965756
6.17670720631
6.1734599048
6.1658883878
6.15345021235
6.13529837583
6.11001532285
6.07709504564
6.03480991499
5.98038051649
5.91053520664
5.82163963198
5.71051914763
5.57564706058
5.42980615759
5.23446894917
5.42476938975
-28.0166818924
-12.9071075054
-10.5688662608
-8.46130915313
-7.18940416291
-6.18978263005
-5.38611972857
-4.7350292764
-4.23429125335
-3.89591973864
-3.742587685
-3.8073828368
-4.13645248212
-4.79269122777
-5.86034975096
-7.45028935953
-9.70587677393
-12.8067561475
-16.9941618624
-22.5120273621
-30.2305955028
-38.4031644229
-65.9371922005
-9.49434056053
1105.46004963
1703.36553741
1377.65110679
1491.28176408
1679.49376694
1871.56218476
1951.70046138
1842.16746501
1914.27268031
2444.74282721
3584.29199567
5437.57775854
8055.07557696
11422.8635961
15451.3229302
19938.1159785
24672.4227423
29397.9543028
33715.8949067
36930.6897119
38051.2480683
36516.3213487
29517.1029181
0
0
44.7158091383
-31.1711896209
-145.09148321
-263.158067285
-367.651507709
-449.357745182
-505.335910231
-536.311490835
-544.793711073
-534.186322695
-508.175898694
-470.291253711
-423.764056642
-371.414673893
-315.527766984
-257.766044163
-199.09913025
-139.683142541
-78.6945327505
-12.8388246025
54.0606555254
112.68863259
209.378736242
30.7813778687
39.7420806832
35.7157209047
33.1747883348
31.2434193216
30.0885032454
29.9495517176
31.1325541678
34.2121112322
39.9788927311
51.8949683648
74.0964337759
6.93939781409
6.73984254937
5.48190729508
5.00322367197
4.73842528603
4.57380323544
4.45894204644
4.37300806293
4.30585779436
4.251829777
4.20718496075
4.16956557925
4.13749397548
4.10995468015
4.0861473149
4.065363854
4.04693374817
4.03020041017
4.01450873981
3.99919306552
3.9835601302
3.96686426564
3.94827253006
3.92681790532
3.90133564353
3.87042630454
3.83270001767
3.78604675012
3.72775484958
3.6546264063
3.56287278696
3.44867999449
3.30765826216
3.14914012531
2.89649209303
3.31452334607
-19.2638939619
-12.0439294399
-9.75985088935
-7.68080901644
-6.37844265457
-5.35553238701
-4.54110241934
-3.88788593208
-3.38998126364
-3.05699436438
-2.91053100372
-2.98338418967
-3.32164895717
-3.98805814706
-5.06630428507
-6.66607674197
-8.92921395025
-12.0344077592
-16.2237410346
-21.7374466832
-29.3983857325
-37.3866687492
-62.8357234893
-9.14451670342
616.189716418
1383.25042058
1307.99412519
1677.92153104
2134.93490026
2644.68099419
2934.79390189
2675.97201931
2007.35928147
1178.35023239
387.134751904
-199.579331258
-447.020940804
-249.772149764
458.691209988
1648.0124829
3227.47417861
5066.97918656
6905.21898191
8168.65150943
7971.94332719
3987.31873737
-1565.86203108
0
0
51.5668567881
-5.01715634605
-100.107768001
-205.069836991
-303.385560832
-385.041632241
-445.432073297
-483.468275699
-499.948746589
-497.174141513
-477.843543846
-444.993951538
-401.652684607
-350.65562058
-294.516636562
-235.313759528
-174.60605583
-113.332647468
-51.6690421141
12.2124645975
73.5018293578
120.254681322
195.720122955
26.6106761104
38.023380737
34.1263334728
31.9660192493
30.2389027496
29.2106923924
29.112636755
30.2360695382
33.093403305
38.0782102674
48.3772437311
62.2612081094
5.0645913603
6.18048334362
5.22415041785
4.82667214745
4.58392815306
4.43021625583
4.32333856055
4.24463242317
4.18432253433
4.13685739121
4.09866106411
4.06740079785
4.04152599398
4.01993746782
4.00178140018
3.98633548575
3.97295023911
3.96101889937
3.9499596917
3.93920127022
3.9281664057
3.91625133551
3.9027993766
3.8870689451
3.86819799344
3.84519557184
3.81707500587
3.78248982521
3.73987753325
3.68774573116
3.62512266367
3.55319985029
3.47698091754
3.42798105723
3.37979458265
4.08580119089
-14.9642861335
-10.6314635303
-8.72502470079
-6.80119803499
-5.5215555997
-4.49840906627
-3.68047381459
-3.02488916939
-2.52535548784
-2.1903163487
-2.04043045978
-2.10775362801
-2.43758555343
-3.09153293785
-4.15155672773
-5.72473759566
-7.94922958771
-10.9984984017
-15.104535033
-20.4832684536
-27.8471515061
-35.3162946552
-57.8143892915
-7.6913461981
190.792752026
868.997129337
1036.52031605
1661.50070635
2422.02374681
3340.35875625
4093.94912059
4224.81830674
3664.28778792
2529.18972613
957.805086922
-911.029456118
-2954.9971296
-5066.13219402
-7186.97553144
-9306.52267288
-11491.6880086
-13914.1370485
-16944.4561748
-21273.9322106
-27846.8439101
-38886.1683962
-50553.9677902
0
0
52.9727926028
11.9761126117
-66.1002018197
-157.775298865
-248.389763134
-327.916782678
-390.732009877
-434.319493109
-458.077506719
-463.044047584
-450.990339175
-424.279574017
-385.525153477
-337.397616474
-282.487493118
-223.176066007
-161.5409338
-99.2521487763
-37.4140595646
24.5530152554
80.9710330553
119.646414847
180.263169421
23.5942742562
36.3774224708
32.6847991375
30.7901255952
29.1915296487
28.2122386845
28.0672326878
29.016280639
31.4954148483
35.5659519912
44.195312704
53.5592248382
4.51810106274
5.92550937006
5.16434663245
4.80803899407
4.56591173582
4.404100125
4.28842670462
4.20233989539
4.13633706387
4.08473717191
4.04379788964
4.01097121225
3.98446957153
3.96297671457
3.94546255753
3.93107325661
3.91906891084
3.90878813237
3.89962588534
3.89101645046
3.88241698428
3.87328942595
3.86308008738
3.85119833565
3.836999153
3.81978518312
3.79891678
3.77363652282
3.74327794757
3.70768137816
3.66797005731
3.62871330165
3.60048183098
3.62211468469
3.68827763656
4.33167287887
-11.7661611147
-9.09955550531
-7.57960552476
-5.85543718921
-4.6297906522
-3.62272078862
-2.80707530477
-2.1489918025
-1.64394640938
-1.30010933588
-1.13724537243
-1.18625105249
-1.49091696433
-2.11078268403
-3.12491227355
-4.63632413921
-6.77743967673
-9.71317581288
-13.6592158812
-18.8002833841
-25.7315013882
-32.5709423562
-52.3615753744
-6.23441553318
-182.601342173
275.905222007
637.994075056
1502.34482785
2558.937713
3879.2786108
5145.44881577
5872.04150027
5856.58499061
5080.74415838
3584.49423462
1437.99767097
-1286.21865363
-4519.46460164
-8234.76630766
-12444.7408412
-17220.8882629
-22723.0300698
-29229.0355691
-37063.1902592
-46001.391149
-56354.5312478
-68802.6812722
0
0
50.8853355608
22.7343580153
-39.9478719554
-118.484866028
-200.381536371
-276.12384189
-339.592502596
-387.232612669
-417.304237861
-429.723123423
-425.302546031
-405.612700345
-372.698289791
-328.892342632
-276.687791252
-218.610474261
-157.121467993
-94.5013342489
-32.6545971135
27.9548898874
80.8680820065
114.888285841
165.881475275
21.3855738567
34.8991506277
31.3931021921
29.6645907128
28.1267104884
27.1294772686
26.8670243046
27.5616348486
29.5782526185
32.7344641266
39.8730020041
46.454900223
4.21490067731
5.66456811273
5.05530316041
4.74402882648
4.51273925398
4.35048048332
4.23149831589
4.14209560077
4.07358485341
4.02044376946
3.9788963713
3.9462699418
3.92061443834
3.90045487386
3.88462896045
3.87218511161
3.86232019686
3.8543413313
3.84764089045
3.8416779698
3.83596242596
3.83003971145
3.82347646456
3.81584901672
3.80674122746
3.79575136421
3.78262156627
3.76716277793
3.74952759636
3.73071345207
3.71350438506
3.70473511963
3.71787867438
3.7911438074
3.92565203846
4.44942535508
-9.31276193294
-7.59470649096
-6.39807621935
-4.86996852774
-3.71223859328
-2.73089814391
-1.92149403423
-1.26066964681
-0.746773440188
-0.388181876182
-0.203701706635
-0.222637270971
-0.486576762044
-1.05208234511
-1.99419637368
-3.41050483997
-5.42597713141
-8.19488762681
-11.9146053533
-16.7414672053
-23.1755793161
-29.3981494872
-47.047301241
-4.95026073793
-508.517392684
-327.72254793
166.279017636
1258.71631627
2599.92046981
4293.98729415
6047.96702986
7411.12534722
8119.90611145
8062.34321214
7189.4822379
5498.28378105
3005.8616449
-261.055512538
-4297.46906703
-9124.2972952
-14782.2357528
-21330.3446046
-28800.3760979
-37097.7046465
-45131.5899605
-53835.5304244
-65827.2560297
0
0
47.3738274693
30.3754065878
-18.1701413191
-83.8425136175
-156.363321166
-227.030873034
-289.619545574
-339.892848839
-375.24416268
-394.624493799
-397.925296801
-385.887497943
-359.87770575
-321.740851047
-273.695551114
-218.227385205
-158.002447025
-95.7457570204
-34.0057442685
25.8613588769
76.6532150811
108.549795023
153.4742428
19.7280760815
33.6389356402
30.2491168348
28.6042554994
27.0686772939
25.9989679611
25.5658840344
25.9547876329
27.4724511641
29.7692954119
35.6502379509
40.3152326978
4.03613421162
5.44590272104
4.94121600514
4.66758493621
4.44885115603
4.28869474241
4.16845039737
4.07722680464
4.00732953594
3.95352176301
3.91205386068
3.88016820399
3.8557863478
3.83730207681
3.82344115827
3.81316849582
3.80562775179
3.80010193087
3.7959866745
3.79277088064
3.79002153532
3.78737144244
3.78451028093
3.78118145461
3.7771927004
3.77242829622
3.76699952294
3.76123021094
3.75596885859
3.75312311243
3.75662090091
3.77446002103
3.820812363
3.92898353883
4.10105163129
4.50827083167
-7.33523691268
-6.18019340158
-5.22125690251
-3.865185974
-2.77716663226
-1.82579703176
-1.0247958492
-0.360775372149
0.164832733896
0.543344995556
0.757104205582
0.778852437697
0.569877170257
0.0774651067519
-0.768338099151
-2.05843146585
-3.90894618697
-6.46239448841
-9.89850566791
-14.3530162302
-20.2627008703
-25.9293171114
-41.9700239787
-3.81354354769
-785.072130892
-900.168294516
-334.005235493
975.876063626
2592.97328603
4630.87407625
6823.49648892
8784.26932661
10241.3119455
11036.2621116
11060.8449086
10254.2707374
8586.97435766
6051.70358032
2641.24850581
-1658.30098627
-6851.28526344
-12916.6499692
-19755.4909665
-27171.8252964
-34199.6415022
-42343.4474255
-54084.0147804
0
0
44.7969560801
38.3633357389
3.16527587048
-49.8857359344
-112.595619757
-177.186347642
-237.580571265
-289.142955531
-328.734674441
-354.425961442
-365.303727147
-361.301875066
-343.057035074
-311.814087622
-269.359503447
-217.951708625
-160.264455704
-99.2781347253
-38.0213406164
21.3506510234
70.9065869274
102.035347871
142.828781046
18.4448856565
32.6074454379
29.2460306592
27.6191862574
26.0378799442
24.8533586798
24.2117437327
24.2650304377
25.275521661
26.7827771025
31.6099810704
34.8297483688
3.91559373451
5.25825752609
4.82343770936
4.5796090209
4.37336195089
4.21704498979
4.09737960603
4.00590772633
3.93592211125
3.88251995216
3.8420139701
3.81159157116
3.78907400613
3.77274860011
3.76124935136
3.7534733927
3.74852336763
3.74566777978
3.74431333654
3.74398522463
3.74431295031
3.74502086824
3.74592412087
3.74693227946
3.74806805013
3.74950193061
3.75167904364
3.75537829286
3.76201846747
3.77417560153
3.79645809509
3.83716686548
3.90975765541
4.04104978072
4.23345396567
4.54053169235
-5.6835489859
-4.8667474264
-4.06910798335
-2.8542074772
-1.83049426659
-0.909497523332
-0.117650656119
0.550156971012
1.08983532858
1.4926002543
1.7422489215
1.81404317705
1.67279528361
1.27046611446
0.543190365924
-0.592094523173
-2.24152050275
-4.53523055797
-7.63703241254
-11.670950396
-17.040054276
-22.2148815028
-37.0489255758
-2.78452411253
-1007.60887075
-1411.02613095
-820.942470251
690.425113055
2573.61093133
4923.56806826
7494.15337834
9969.91576566
12101.2604164
13719.8017623
14688.6627849
14910.2047163
14319.6891958
12880.3665643
10568.3974207
7363.54895394
3259.61747364
-1725.85324649
-7527.39257592
-14072.3247389
-20783.044644
-28900.2607198
-40242.9734152
0
0
45.8517364926
50.5239910272
28.4125266825
-12.1116255082
-64.6712087497
-122.377694329
-179.4428531
-231.086955037
-273.782502529
-304.978432022
-323.070006709
-327.248697202
-317.423677468
-294.177568612
-258.744986097